Created by /home/tpascal/scripts/createLammpsInput.pl on Thu Sep 26 11:58:33 2013

         648 atoms
         432 bonds
         216 angles
           0 dihedrals
           0 impropers

           2 atom types
           1 bond types
           1 angle types
           0 dihedral types
           0 improper types

		   0.000000  18.774350 xlo xhi
		   0.000000  18.774350 ylo yhi
		   0.000000  18.774350 zlo zhi

Masses

    1   1.0080 # HW     
    2  15.9994 # OW     

Pair Coeffs

    1      0.00000000               0 
    2      0.15550000      3.16598677                 

Bond Coeffs

    1            5530               1 # HW OW                 

Angle Coeffs

    1            1000          109.47 # HW OW HW 

Atoms

       1        1        2    -0.84760   11.96039    8.35310    7.66648    0    0    0
       2        1        1     0.42380   11.87980    7.43856    7.39565    0    0    0
       3        1        1     0.42380   11.54684    8.84981    6.96045    0    0    0
       4        2        2    -0.84760   10.09220   10.13101    9.54740    0    0    0
       5        2        1     0.42380    9.31641    9.65105    9.83726    0    0    0
       6        2        1     0.42380   10.74349    9.45157    9.37302    0    0    0
       7        3        2    -0.84760    4.10878   10.44299   10.42498    0    0    0
       8        3        1     0.42380    3.27727   10.18786   10.82463    0    0    0
       9        3        1     0.42380    4.71688   10.51406   11.16077    0    0    0
      10        4        2    -0.84760   14.11294   14.53702    8.32732    0    0    0
      11        4        1     0.42380   13.65109   13.76575    8.65603    0    0    0
      12        4        1     0.42380   14.92550   14.56363    8.83256    0    0    0
      13        5        2    -0.84760    4.08891   14.47700   10.62078    0    0    0
      14        5        1     0.42380    4.39171   13.58677   10.44180    0    0    0
      15        5        1     0.42380    4.83327   15.03402   10.39301    0    0    0
      16        6        2    -0.84760    2.51798    5.40318    4.20922    0    0    0
      17        6        1     0.42380    1.62965    5.74477    4.10721    0    0    0
      18        6        1     0.42380    2.80209    5.20321    3.31730    0    0    0
      19        7        2    -0.84760    0.48128    8.00374   10.09319    0    0    0
      20        7        1     0.42380    1.05289    7.23596   10.09355    0    0    0
      21        7        1     0.42380    0.48143    8.30262    9.18385    0    0    0
      22        8        2    -0.84760   10.33927   16.82283    7.94772    0    0    0
      23        8        1     0.42380    9.72042   17.27858    7.37716    0    0    0
      24        8        1     0.42380   11.19445   16.97797    7.54669    0    0    0
      25        9        2    -0.84760    9.53310   12.80672    9.55442    0    0    0
      26        9        1     0.42380    9.46392   11.86572    9.39333    0    0    0
      27        9        1     0.42380   10.29508   12.89687   10.12668    0    0    0
      28       10        2    -0.84760    1.72376    3.41218   11.88008    0    0    0
      29       10        1     0.42380    1.54405    2.51475   12.16036    0    0    0
      30       10        1     0.42380    1.32177    3.95936   12.55478    0    0    0
      31       11        2    -0.84760   10.56361    5.61376    9.78131    0    0    0
      32       11        1     0.42380   10.94010    4.74095    9.66868    0    0    0
      33       11        1     0.42380   10.46556    5.94963    8.89036    0    0    0
      34       12        2    -0.84760    4.69411    3.98633    5.24306    0    0    0
      35       12        1     0.42380    4.80079    4.88670    5.54993    0    0    0
      36       12        1     0.42380    3.78335    3.93812    4.95252    0    0    0
      37       13        2    -0.84760   14.34603    3.10881    6.71415    0    0    0
      38       13        1     0.42380   15.16699    2.61846    6.75670    0    0    0
      39       13        1     0.42380   14.37943    3.69857    7.46733    0    0    0
      40       14        2    -0.84760    2.34243    5.90823   10.48832    0    0    0
      41       14        1     0.42380    3.02344    6.17206   11.10706    0    0    0
      42       14        1     0.42380    2.02724    5.06831   10.82212    0    0    0
      43       15        2    -0.84760    6.53489    6.95496    9.57558    0    0    0
      44       15        1     0.42380    7.04271    7.45306   10.21608    0    0    0
      45       15        1     0.42380    7.06621    6.17848    9.39951    0    0    0
      46       16        2    -0.84760   18.63598    5.12548   13.27851    0    0    0
      47       16        1     0.42380   17.93120    5.51365   12.76002    0    0    0
      48       16        1     0.42380   18.90177    5.82051   13.88060    0    0    0
      49       17        2    -0.84760    4.81850    1.59482   13.84192    0    0    0
      50       17        1     0.42380    4.82034    2.11206   13.03651    0    0    0
      51       17        1     0.42380    3.98893    1.11784   13.81891    0    0    0
      52       18        2    -0.84760   11.20561   11.70675    5.34091    0    0    0
      53       18        1     0.42380   10.58733   12.17169    4.77718    0    0    0
      54       18        1     0.42380   11.71793   12.39950    5.75786    0    0    0
      55       19        2    -0.84760    6.06878   11.23434   12.01927    0    0    0
      56       19        1     0.42380    5.73572   11.86123   12.66137    0    0    0
      57       19        1     0.42380    6.24545   11.76052   11.23943    0    0    0
      58       20        2    -0.84760   14.58217    5.04884    9.48690    0    0    0
      59       20        1     0.42380   13.87773    5.33733   10.06721    0    0    0
      60       20        1     0.42380   14.94339    5.85886    9.12686    0    0    0
      61       21        2    -0.84760    4.50003    3.30581   11.84896    0    0    0
      62       21        1     0.42380    4.84171    4.15002   11.55435    0    0    0
      63       21        1     0.42380    3.56161    3.45419   11.96550    0    0    0
      64       22        2    -0.84760    5.28069   13.20242   13.83419    0    0    0
      65       22        1     0.42380    5.89809   13.87752   13.55263    0    0    0
      66       22        1     0.42380    4.42000   13.61121   13.74294    0    0    0
      67       23        2    -0.84760    0.57393   12.39240    2.71487    0    0    0
      68       23        1     0.42380    0.19672   12.88111    1.98336    0    0    0
      69       23        1     0.42380    0.83123   13.06493    3.34552    0    0    0
      70       24        2    -0.84760   16.19845   14.66636   11.74965    0    0    0
      71       24        1     0.42380   15.51480   15.33627   11.74132    0    0    0
      72       24        1     0.42380   16.73788   14.86442   10.98414    0    0    0
      73       25        2    -0.84760   17.65087    4.49432    9.87782    0    0    0
      74       25        1     0.42380   16.70336    4.52822   10.00937    0    0    0
      75       25        1     0.42380   17.97586    5.30822   10.26276    0    0    0
      76       26        2    -0.84760    8.18282    0.79404    8.17342    0    0    0
      77       26        1     0.42380    8.49032    0.23873    7.45697    0    0    0
      78       26        1     0.42380    7.25289    0.92849    7.99072    0    0    0
      79       27        2    -0.84760   13.73433   16.51077   10.46417    0    0    0
      80       27        1     0.42380   13.74704   16.10700    9.59639    0    0    0
      81       27        1     0.42380   13.18185   17.28550   10.36031    0    0    0
      82       28        2    -0.84760   15.02887   13.23239    5.55318    0    0    0
      83       28        1     0.42380   14.91850   12.28983    5.67813    0    0    0
      84       28        1     0.42380   15.02569   13.59396    6.43946    0    0    0
      85       29        2    -0.84760   13.13287   11.41375   11.79243    0    0    0
      86       29        1     0.42380   13.54975   11.19977   10.95777    0    0    0
      87       29        1     0.42380   13.85685   11.67103   12.36329    0    0    0
      88       30        2    -0.84760   10.57090    8.85892    4.90943    0    0    0
      89       30        1     0.42380    9.64382    8.79266    5.13828    0    0    0
      90       30        1     0.42380   10.72338    9.79694    4.79496    0    0    0
      91       31        2    -0.84760   10.55780    5.13062    1.90615    0    0    0
      92       31        1     0.42380    9.61817    5.29202    1.99140    0    0    0
      93       31        1     0.42380   10.87613    5.84919    1.35975    0    0    0
      94       32        2    -0.84760   17.07908    9.81248   11.88405    0    0    0
      95       32        1     0.42380   16.25094    9.88179   11.40907    0    0    0
      96       32        1     0.42380   17.67413   10.39791   11.41564    0    0    0
      97       33        2    -0.84760   14.60062   10.42095    5.41296    0    0    0
      98       33        1     0.42380   13.98187   10.08291    4.76559    0    0    0
      99       33        1     0.42380   14.58307    9.77693    6.12088    0    0    0
     100       34        2    -0.84760   14.04328    6.59941   12.82954    0    0    0
     101       34        1     0.42380   13.63040    7.42478   13.08354    0    0    0
     102       34        1     0.42380   13.31088    6.01391   12.63718    0    0    0
     103       35        2    -0.84760    6.17656    9.38540    7.69141    0    0    0
     104       35        1     0.42380    5.77226    8.67312    7.19600    0    0    0
     105       35        1     0.42380    6.26287    9.04072    8.58021    0    0    0
     106       36        2    -0.84760    6.64473   13.07215    9.85533    0    0    0
     107       36        1     0.42380    6.34756   12.46670    9.17611    0    0    0
     108       36        1     0.42380    7.59471   13.10989    9.74426    0    0    0
     109       37        2    -0.84760    4.88942    6.15972   11.47131    0    0    0
     110       37        1     0.42380    5.44088    6.26925   10.69664    0    0    0
     111       37        1     0.42380    5.40377    6.53348   12.18683    0    0    0
     112       38        2    -0.84760   14.73329   16.64534   13.51764    0    0    0
     113       38        1     0.42380   14.25635   17.45256   13.32490    0    0    0
     114       38        1     0.42380   14.04947   15.99317   13.67026    0    0    0
     115       39        2    -0.84760    5.73657   12.81032   16.50611    0    0    0
     116       39        1     0.42380    4.83943   13.03432   16.75345    0    0    0
     117       39        1     0.42380    5.76186   12.93382   15.55725    0    0    0
     118       40        2    -0.84760   12.77709    9.65964    2.42023    0    0    0
     119       40        1     0.42380   13.21642    8.82188    2.27402    0    0    0
     120       40        1     0.42380   13.48994   10.29258    2.50665    0    0    0
     121       41        2    -0.84760    4.56369    9.68166   15.08184    0    0    0
     122       41        1     0.42380    4.42447   10.55394   15.45058    0    0    0
     123       41        1     0.42380    3.68183    9.33894   14.93664    0    0    0
     124       42        2    -0.84760   10.88663   14.59924    6.38836    0    0    0
     125       42        1     0.42380   11.32622   15.34168    5.97390    0    0    0
     126       42        1     0.42380   10.82532   14.84190    7.31225    0    0    0
     127       43        2    -0.84760    6.36173   15.62383   17.29036    0    0    0
     128       43        1     0.42380    6.33327   16.02812   16.42320    0    0    0
     129       43        1     0.42380    6.19823   14.69486   17.12752    0    0    0
     130       44        2    -0.84760   16.35881    0.91392    0.73434    0    0    0
     131       44        1     0.42380   16.04607    1.00660    1.63424    0    0    0
     132       44        1     0.42380   17.12006    1.49202    0.68408    0    0    0
     133       45        2    -0.84760    2.87702    8.27990    5.19207    0    0    0
     134       45        1     0.42380    2.75678    9.00611    4.58020    0    0    0
     135       45        1     0.42380    2.56711    7.51019    4.71486    0    0    0
     136       46        2    -0.84760   18.31321   16.40654   18.58678    0    0    0
     137       46        1     0.42380   18.78918   16.88482   19.26568    0    0    0
     138       46        1     0.42380   18.93393   16.33828   17.86133    0    0    0
     139       47        2    -0.84760    0.51556   11.45141   10.99894    0    0    0
     140       47        1     0.42380    0.59360   11.58629   10.05451    0    0    0
     141       47        1     0.42380    1.12973   10.74300   11.19175    0    0    0
     142       48        2    -0.84760    1.76032   13.15143    7.40955    0    0    0
     143       48        1     0.42380    1.35313   13.29289    6.55491    0    0    0
     144       48        1     0.42380    2.65162   12.86745    7.20667    0    0    0
     145       49        2    -0.84760   17.71654   13.59782   15.74678    0    0    0
     146       49        1     0.42380   17.84284   13.35901   14.82850    0    0    0
     147       49        1     0.42380   17.75867   12.76627   16.21899    0    0    0
     148       50        2    -0.84760   11.57821   17.30062   14.31626    0    0    0
     149       50        1     0.42380   12.09268   17.21142   15.11850    0    0    0
     150       50        1     0.42380   10.73512   17.64659   14.60905    0    0    0
     151       51        2    -0.84760   13.55365   17.58615    3.74466    0    0    0
     152       51        1     0.42380   13.39376   17.29645    4.64284    0    0    0
     153       51        1     0.42380   13.38832   16.81017    3.20918    0    0    0
     154       52        2    -0.84760    6.03249   17.36601    5.52182    0    0    0
     155       52        1     0.42380    5.85674   16.44956    5.30860    0    0    0
     156       52        1     0.42380    5.17806   17.72474    5.76160    0    0    0
     157       53        2    -0.84760   13.25626   15.09491    2.30446    0    0    0
     158       53        1     0.42380   12.56278   15.09264    1.64469    0    0    0
     159       53        1     0.42380   13.99855   14.67084    1.87388    0    0    0
     160       54        2    -0.84760   12.82126   16.72118    6.37931    0    0    0
     161       54        1     0.42380   13.27695   15.94012    6.69317    0    0    0
     162       54        1     0.42380   13.16051   17.43186    6.92343    0    0    0
     163       55        2    -0.84760   17.56894    5.65107   16.71175    0    0    0
     164       55        1     0.42380   16.95336    6.15903   16.18330    0    0    0
     165       55        1     0.42380   17.24858    4.75090   16.65435    0    0    0
     166       56        2    -0.84760    0.57151   12.49283   13.53838    0    0    0
     167       56        1     0.42380    0.73462   12.02336   12.72032    0    0    0
     168       56        1     0.42380    1.03676   11.98518   14.20327    0    0    0
     169       57        2    -0.84760    5.34339    1.62340    8.57444    0    0    0
     170       57        1     0.42380    4.90020    2.40436    8.24289    0    0    0
     171       57        1     0.42380    5.90189    1.94639    9.28153    0    0    0
     172       58        2    -0.84760    9.63037    4.49026   14.17797    0    0    0
     173       58        1     0.42380    9.16831    4.69856   14.98996    0    0    0
     174       58        1     0.42380    9.22818    3.67619   13.87504    0    0    0
     175       59        2    -0.84760   14.63082    5.71115   15.30764    0    0    0
     176       59        1     0.42380   13.78018    5.41173   15.62854    0    0    0
     177       59        1     0.42380   14.47100    5.95535   14.39602    0    0    0
     178       60        2    -0.84760   11.72579    7.21133   17.40752    0    0    0
     179       60        1     0.42380   12.05113    6.37770   17.06774    0    0    0
     180       60        1     0.42380   12.51382    7.73418   17.55535    0    0    0
     181       61        2    -0.84760    8.45927    1.24447    3.45502    0    0    0
     182       61        1     0.42380    7.83469    1.24046    4.18035    0    0    0
     183       61        1     0.42380    8.37228    0.37757    3.05862    0    0    0
     184       62        2    -0.84760    7.38098    2.16814   10.43340    0    0    0
     185       62        1     0.42380    7.67821    3.07442   10.35260    0    0    0
     186       62        1     0.42380    7.92953    1.68001    9.81936    0    0    0
     187       63        2    -0.84760    5.13481    6.74676    6.30256    0    0    0
     188       63        1     0.42380    4.90890    6.53048    7.20723    0    0    0
     189       63        1     0.42380    4.35406    7.17961    5.95716    0    0    0
     190       64        2    -0.84760   12.36459    6.75310    4.90163    0    0    0
     191       64        1     0.42380   11.76548    7.47668    4.71799    0    0    0
     192       64        1     0.42380   12.91255    6.69078    4.11927    0    0    0
     193       65        2    -0.84760    7.57473    7.64532   16.96859    0    0    0
     194       65        1     0.42380    7.47909    6.70479   16.81863    0    0    0
     195       65        1     0.42380    8.41793    7.86683   16.57340    0    0    0
     196       66        2    -0.84760   10.97107    5.38945    6.93196    0    0    0
     197       66        1     0.42380   11.36403    5.70667    6.11883    0    0    0
     198       66        1     0.42380   11.33276    4.51064    7.04641    0    0    0
     199       67        2    -0.84760    2.70579    4.05669   15.12197    0    0    0
     200       67        1     0.42380    2.31212    4.90421   15.32925    0    0    0
     201       67        1     0.42380    2.01763    3.41932   15.31283    0    0    0
     202       68        2    -0.84760    9.28029    4.14018   18.19164    0    0    0
     203       68        1     0.42380    8.59012    3.94740   18.82625    0    0    0
     204       68        1     0.42380   10.02352    4.42365   18.72407    0    0    0
     205       69        2    -0.84760    0.00749    1.97953    9.15498    0    0    0
     206       69        1     0.42380   -0.28120    2.54982    9.86747    0    0    0
     207       69        1     0.42380    0.75207    1.49998    9.51810    0    0    0
     208       70        2    -0.84760    0.19451    5.92154    0.36525    0    0    0
     209       70        1     0.42380    0.11198    6.86462    0.50675    0    0    0
     210       70        1     0.42380   -0.15718    5.77903   -0.51352    0    0    0
     211       71        2    -0.84760   11.55659    7.98003   11.02703    0    0    0
     212       71        1     0.42380   10.82470    8.48871   11.37604    0    0    0
     213       71        1     0.42380   11.15902    7.16302   10.72591    0    0    0
     214       72        2    -0.84760    7.99433    4.65545    9.43228    0    0    0
     215       72        1     0.42380    7.99793    4.21444    8.58274    0    0    0
     216       72        1     0.42380    8.88944    4.97718    9.53947    0    0    0
     217       73        2    -0.84760    3.84456    4.53810    8.39170    0    0    0
     218       73        1     0.42380    3.50457    5.01562    9.14841    0    0    0
     219       73        1     0.42380    3.08230    4.08461    8.03181    0    0    0
     220       74        2    -0.84760    8.05634    5.65665    2.42296    0    0    0
     221       74        1     0.42380    8.17762    5.61530    3.37154    0    0    0
     222       74        1     0.42380    7.67119    6.51907    2.26763    0    0    0
     223       75        2    -0.84760   12.01918    3.43339   10.43933    0    0    0
     224       75        1     0.42380   12.03645    3.88426   11.28351    0    0    0
     225       75        1     0.42380   11.77074    2.53396   10.65267    0    0    0
     226       76        2    -0.84760    7.06849    7.96677    1.82129    0    0    0
     227       76        1     0.42380    6.50018    7.51859    1.19488    0    0    0
     228       76        1     0.42380    7.77739    8.32605    1.28780    0    0    0
     229       77        2    -0.84760   15.44625    0.84661   16.27797    0    0    0
     230       77        1     0.42380   15.77083    0.11558   16.80376    0    0    0
     231       77        1     0.42380   15.48190    0.52798   15.37607    0    0    0
     232       78        2    -0.84760    2.14541   11.86797   15.69796    0    0    0
     233       78        1     0.42380    1.76089   11.22734   16.29626    0    0    0
     234       78        1     0.42380    2.45663   12.57158   16.26744    0    0    0
     235       79        2    -0.84760    8.29512    8.71562   11.17882    0    0    0
     236       79        1     0.42380    8.66214    8.24148   11.92496    0    0    0
     237       79        1     0.42380    8.10563    9.58978   11.51966    0    0    0
     238       80        2    -0.84760    1.15917    3.45999    7.30817    0    0    0
     239       80        1     0.42380    0.87386    3.09556    8.14603    0    0    0
     240       80        1     0.42380    1.09706    2.72804    6.69449    0    0    0
     241       81        2    -0.84760    6.08506    7.75649   13.49725    0    0    0
     242       81        1     0.42380    5.78077    8.63569   13.72228    0    0    0
     243       81        1     0.42380    7.03971    7.81647   13.53299    0    0    0
     244       82        2    -0.84760    4.61324   11.96259    4.09393    0    0    0
     245       82        1     0.42380    3.83947   11.42235    3.93380    0    0    0
     246       82        1     0.42380    5.34270   11.44325    3.75571    0    0    0
     247       83        2    -0.84760   15.37204   10.95912    9.88657    0    0    0
     248       83        1     0.42380   16.09195   11.45465    9.49618    0    0    0
     249       83        1     0.42380   15.17022   10.28091    9.24196    0    0    0
     250       84        2    -0.84760   10.83303    2.35292    4.02951    0    0    0
     251       84        1     0.42380   10.01949    1.85424    3.95404    0    0    0
     252       84        1     0.42380   10.63923    3.19274    3.61314    0    0    0
     253       85        2    -0.84760   10.75392   11.03003   15.77347    0    0    0
     254       85        1     0.42380   10.68765   10.10960   15.51923    0    0    0
     255       85        1     0.42380   10.12443   11.12757   16.48793    0    0    0
     256       86        2    -0.84760   13.54787    6.72488    2.32572    0    0    0
     257       86        1     0.42380   14.43583    7.03661    2.15086    0    0    0
     258       86        1     0.42380   13.51838    5.85211    1.93378    0    0    0
     259       87        2    -0.84760    4.65698   11.63063    7.73181    0    0    0
     260       87        1     0.42380    5.17485   10.82745    7.67750    0    0    0
     261       87        1     0.42380    4.20538   11.56854    8.57349    0    0    0
     262       88        2    -0.84760    9.54393   12.89725    3.00454    0    0    0
     263       88        1     0.42380    9.88550   13.64148    2.50887    0    0    0
     264       88        1     0.42380    8.71520   13.21037    3.36702    0    0    0
     265       89        2    -0.84760    2.14143    8.59676   14.64438    0    0    0
     266       89        1     0.42380    1.78293    9.26215   15.23172    0    0    0
     267       89        1     0.42380    1.84689    7.76512   15.01564    0    0    0
     268       90        2    -0.84760    5.34275    9.05519   17.52834    0    0    0
     269       90        1     0.42380    5.04276    9.20090   16.63112    0    0    0
     270       90        1     0.42380    6.11387    8.49572   17.43568    0    0    0
     271       91        2    -0.84760   10.68559   13.85209   15.52385    0    0    0
     272       91        1     0.42380   10.70004   12.92018   15.30574    0    0    0
     273       91        1     0.42380    9.97810   13.93806   16.16283    0    0    0
     274       92        2    -0.84760   15.81930    8.03607    1.79371    0    0    0
     275       92        1     0.42380   15.73567    8.46749    0.94335    0    0    0
     276       92        1     0.42380   16.53872    8.49590    2.22639    0    0    0
     277       93        2    -0.84760   16.89671   10.49282   14.87071    0    0    0
     278       93        1     0.42380   16.17153   11.08570   14.67365    0    0    0
     279       93        1     0.42380   17.42426   10.48517   14.07204    0    0    0
     280       94        2    -0.84760   16.84802   14.89029    4.52192    0    0    0
     281       94        1     0.42380   16.20564   14.23586    4.79630    0    0    0
     282       94        1     0.42380   16.46109   15.29580    3.74599    0    0    0
     283       95        2    -0.84760   12.42667   12.21884    8.36909    0    0    0
     284       95        1     0.42380   12.77905   11.62165    7.70923    0    0    0
     285       95        1     0.42380   11.54290   11.89326    8.53992    0    0    0
     286       96        2    -0.84760    8.51300   12.97861    5.77613    0    0    0
     287       96        1     0.42380    9.20011   13.52553    6.15689    0    0    0
     288       96        1     0.42380    7.72624   13.52268    5.81109    0    0    0
     289       97        2    -0.84760    0.65224    8.59589    1.26784    0    0    0
     290       97        1     0.42380    1.52172    8.87837    1.55143    0    0    0
     291       97        1     0.42380    0.16127    9.40948    1.15272    0    0    0
     292       98        2    -0.84760    7.81572    9.98321    5.38867    0    0    0
     293       98        1     0.42380    8.27200   10.79373    5.61469    0    0    0
     294       98        1     0.42380    7.46454    9.66552    6.22052    0    0    0
     295       99        2    -0.84760   10.11898   15.49384   12.61790    0    0    0
     296       99        1     0.42380   10.76320   15.69978   13.29524    0    0    0
     297       99        1     0.42380   10.48192   14.73268   12.16498    0    0    0
     298      100        2    -0.84760    3.71690    0.32697    5.86092    0    0    0
     299      100        1     0.42380    3.58836    0.31876    6.80941    0    0    0
     300      100        1     0.42380    2.89310    0.66528    5.51002    0    0    0
     301      101        2    -0.84760   11.39219   13.49708   11.33564    0    0    0
     302      101        1     0.42380   12.03441   12.79639   11.44886    0    0    0
     303      101        1     0.42380   11.91712   14.27692   11.15533    0    0    0
     304      102        2    -0.84760   15.23776   13.78194    1.05956    0    0    0
     305      102        1     0.42380   15.01152   13.06498    1.65202    0    0    0
     306      102        1     0.42380   14.84738   13.53318    0.22173    0    0    0
     307      103        2    -0.84760   13.16595   14.29657   14.53925    0    0    0
     308      103        1     0.42380   13.50157   14.88324   15.21704    0    0    0
     309      103        1     0.42380   12.24598   14.16584   14.76903    0    0    0
     310      104        2    -0.84760    1.01936   17.80863    1.83400    0    0    0
     311      104        1     0.42380    1.37913   18.40756    1.17973    0    0    0
     312      104        1     0.42380    0.87860   18.35462    2.60751    0    0    0
     313      105        2    -0.84760    0.71629    2.08609   15.32159    0    0    0
     314      105        1     0.42380    0.00214    2.28578   15.92685    0    0    0
     315      105        1     0.42380    1.13579    1.31004   15.69307    0    0    0
     316      106        2    -0.84760   14.81939   11.69913    2.72097    0    0    0
     317      106        1     0.42380   14.53156   12.16040    3.50876    0    0    0
     318      106        1     0.42380   15.61460   11.23891    2.98940    0    0    0
     319      107        2    -0.84760    1.00355   16.07411   16.30824    0    0    0
     320      107        1     0.42380    1.11266   15.13359   16.16778    0    0    0
     321      107        1     0.42380    0.35161   16.33959   15.65962    0    0    0
     322      108        2    -0.84760    8.99481   14.34570   17.70806    0    0    0
     323      108        1     0.42380    8.67450   13.62663   18.25263    0    0    0
     324      108        1     0.42380    8.32064   15.02121   17.78166    0    0    0
     325      109        2    -0.84760    7.03623   15.19175    2.65137    0    0    0
     326      109        1     0.42380    7.02724   15.92472    2.03582    0    0    0
     327      109        1     0.42380    6.11606   14.94490    2.74407    0    0    0
     328      110        2    -0.84760    2.63689   10.41324    3.39605    0    0    0
     329      110        1     0.42380    2.02968   11.15313    3.40558    0    0    0
     330      110        1     0.42380    3.11182   10.50317    2.56987    0    0    0
     331      111        2    -0.84760   12.21017    4.57832   13.07174    0    0    0
     332      111        1     0.42380   12.57825    3.75784   13.39969    0    0    0
     333      111        1     0.42380   11.34999    4.63851   13.48730    0    0    0
     334      112        2    -0.84760   15.57637    3.53401    3.88049    0    0    0
     335      112        1     0.42380   14.94769    3.63858    3.16632    0    0    0
     336      112        1     0.42380   15.08156    3.75369    4.66988    0    0    0