LAMMPS (27 Aug 2013)
units		   real
atom_style	  full
boundary		p p p
dielectric	  1
special_bonds   lj/coul 0.0 0.0 1.0

pair_style	  lj/charmm/coul/long/opt 9 10.00000
bond_style      harmonic
angle_style     harmonic
dihedral_style  none
improper_style  none
kspace_style	pppm 0.001

read_data	   data.watbox.spc
  2 = max bonds/atom
  1 = max angles/atom
  0 = max dihedrals/atom
  0 = max impropers/atom
  orthogonal box = (0 0 0) to (18.7743 18.7743 18.7743)
  1 by 1 by 1 MPI processor grid
  648 atoms
  432 bonds
  216 angles
  0 dihedrals
  0 impropers
  2 = max # of 1-2 neighbors
  1 = max # of 1-3 neighbors
  2 = max # of special neighbors

pair_modify	 mix geometric
neighbor		2.0 multi
neigh_modify	every 2 delay 4 check yes
thermo_style	multi
thermo_modify		line multi format float %14.6f
variable		input index in.watbox.spc
variable		sname index watbox.spc

print                          .
.
print ==========================================
==========================================
print "500 steps CG Minimization"
500 steps CG Minimization
print ==========================================
==========================================
print                          .
.

dump            1 all atom 25 ${sname}.min.lammpstrj
dump            1 all atom 25 watbox.spc.min.lammpstrj
dump_modify     1 image yes scale yes
thermo          10
min_style       sd
minimize        1.0e-4 1.0e-4 500 5000
WARNING: Resetting reneighboring criteria during minimization (../min.cpp:173)
PPPM initialization ...
  G vector (1/distance) = 0.246947
  grid = 8 8 8
  stencil order = 5
  estimated absolute RMS force accuracy = 0.0750083
  estimated relative force accuracy = 0.000225885
  using double precision FFTs
  3d grid and FFT values/proc = 2197 512
Memory usage per processor = 6.27345 Mbytes
---------------- Step        0 ----- CPU =      0.0000 (sec) ----------------
TotEng   =    3892.704659 KinEng   =       0.000000 Temp     =       0.000000 
PotEng   =    3892.704659 E_bond   =    4376.861009 E_angle  =    1612.186725 
E_dihed  =       0.000000 E_impro  =       0.000000 E_vdwl   =     287.133842 
E_coul   =    8380.122013 E_long   =  -10763.598931 Press    =  694838.252323 
---------------- Step       10 ----- CPU =      0.3636 (sec) ----------------
TotEng   =   -2301.647487 KinEng   =       0.000000 Temp     =       0.000000 
PotEng   =   -2301.647487 E_bond   =       4.853707 E_angle  =       2.611133 
E_dihed  =       0.000000 E_impro  =       0.000000 E_vdwl   =     283.581484 
E_coul   =    8171.251720 E_long   =  -10763.945531 Press    =   -4570.187377 
---------------- Step       20 ----- CPU =      0.8031 (sec) ----------------
TotEng   =   -2317.473480 KinEng   =       0.000000 Temp     =       0.000000 
PotEng   =   -2317.473480 E_bond   =       5.774995 E_angle  =       2.893461 
E_dihed  =       0.000000 E_impro  =       0.000000 E_vdwl   =     281.400162 
E_coul   =    8156.685498 E_long   =  -10764.227596 Press    =   -6956.148094 
---------------- Step       30 ----- CPU =      1.2410 (sec) ----------------
TotEng   =   -2331.884245 KinEng   =       0.000000 Temp     =       0.000000 
PotEng   =   -2331.884245 E_bond   =       5.862047 E_angle  =       2.914935 
E_dihed  =       0.000000 E_impro  =       0.000000 E_vdwl   =     279.638299 
E_coul   =    8144.162110 E_long   =  -10764.461635 Press    =   -7234.529092 
---------------- Step       40 ----- CPU =      1.6796 (sec) ----------------
TotEng   =   -2345.041560 KinEng   =       0.000000 Temp     =       0.000000 
PotEng   =   -2345.041560 E_bond   =       5.942627 E_angle  =       2.929264 
E_dihed  =       0.000000 E_impro  =       0.000000 E_vdwl   =     278.230009 
E_coul   =    8132.511652 E_long   =  -10764.655112 Press    =   -7450.898072 
---------------- Step       50 ----- CPU =      2.1077 (sec) ----------------
TotEng   =   -2362.018990 KinEng   =       0.000000 Temp     =       0.000000 
PotEng   =   -2362.018990 E_bond   =       6.171322 E_angle  =       2.945742 
E_dihed  =       0.000000 E_impro  =       0.000000 E_vdwl   =     276.310941 
E_coul   =    8117.430115 E_long   =  -10764.877111 Press    =   -7721.134090 
---------------- Step       60 ----- CPU =      2.5035 (sec) ----------------
TotEng   =   -2428.490860 KinEng   =       0.000000 Temp     =       0.000000 
PotEng   =   -2428.490860 E_bond   =       7.422293 E_angle  =       3.357999 
E_dihed  =       0.000000 E_impro  =       0.000000 E_vdwl   =     273.376597 
E_coul   =    8052.805658 E_long   =  -10765.453408 Press    =  -10757.450372 
---------------- Step       70 ----- CPU =      2.9666 (sec) ----------------
TotEng   =   -2437.536862 KinEng   =       0.000000 Temp     =       0.000000 
PotEng   =   -2437.536862 E_bond   =       6.930339 E_angle  =       3.009313 
E_dihed  =       0.000000 E_impro  =       0.000000 E_vdwl   =     272.922460 
E_coul   =    8045.122442 E_long   =  -10765.521416 Press    =   -8820.709817 
---------------- Step       80 ----- CPU =      3.4690 (sec) ----------------
TotEng   =   -2442.254163 KinEng   =       0.000000 Temp     =       0.000000 
PotEng   =   -2442.254163 E_bond   =       6.958445 E_angle  =       3.010279 
E_dihed  =       0.000000 E_impro  =       0.000000 E_vdwl   =     272.822768 
E_coul   =    8040.507211 E_long   =  -10765.552865 Press    =   -8874.213166 
---------------- Step       90 ----- CPU =      3.9710 (sec) ----------------
TotEng   =   -2446.852829 KinEng   =       0.000000 Temp     =       0.000000 
PotEng   =   -2446.852829 E_bond   =       6.979033 E_angle  =       3.012468 
E_dihed  =       0.000000 E_impro  =       0.000000 E_vdwl   =     272.755946 
E_coul   =    8035.981955 E_long   =  -10765.582230 Press    =   -8937.964793 
---------------- Step      100 ----- CPU =      4.4728 (sec) ----------------
TotEng   =   -2451.179802 KinEng   =       0.000000 Temp     =       0.000000 
PotEng   =   -2451.179802 E_bond   =       6.992622 E_angle  =       3.014621 
E_dihed  =       0.000000 E_impro  =       0.000000 E_vdwl   =     272.718086 
E_coul   =    8031.704629 E_long   =  -10765.609761 Press    =   -8994.086130 
---------------- Step      110 ----- CPU =      4.9748 (sec) ----------------
TotEng   =   -2455.524141 KinEng   =       0.000000 Temp     =       0.000000 
PotEng   =   -2455.524141 E_bond   =       6.971331 E_angle  =       3.016563 
E_dihed  =       0.000000 E_impro  =       0.000000 E_vdwl   =     272.715148 
E_coul   =    8027.408220 E_long   =  -10765.635403 Press    =   -9054.098496 
---------------- Step      120 ----- CPU =      5.4758 (sec) ----------------
TotEng   =   -2459.608089 KinEng   =       0.000000 Temp     =       0.000000 
PotEng   =   -2459.608089 E_bond   =       6.954952 E_angle  =       3.018403 
E_dihed  =       0.000000 E_impro  =       0.000000 E_vdwl   =     272.734235 
E_coul   =    8023.344226 E_long   =  -10765.659906 Press    =   -9104.559666 
---------------- Step      130 ----- CPU =      5.9782 (sec) ----------------
TotEng   =   -2463.807697 KinEng   =       0.000000 Temp     =       0.000000 
PotEng   =   -2463.807697 E_bond   =       6.942142 E_angle  =       3.020130 
E_dihed  =       0.000000 E_impro  =       0.000000 E_vdwl   =     272.774848 
E_coul   =    8019.138559 E_long   =  -10765.683377 Press    =   -9162.900553 
---------------- Step      140 ----- CPU =      6.4764 (sec) ----------------
TotEng   =   -2467.773561 KinEng   =       0.000000 Temp     =       0.000000 
PotEng   =   -2467.773561 E_bond   =       6.932922 E_angle  =       3.021830 
E_dihed  =       0.000000 E_impro  =       0.000000 E_vdwl   =     272.836267 
E_coul   =    8015.141337 E_long   =  -10765.705917 Press    =   -9212.006397 
---------------- Step      150 ----- CPU =      6.9796 (sec) ----------------
TotEng   =   -2471.674348 KinEng   =       0.000000 Temp     =       0.000000 
PotEng   =   -2471.674348 E_bond   =       6.926279 E_angle  =       3.023519 
E_dihed  =       0.000000 E_impro  =       0.000000 E_vdwl   =     272.918700 
E_coul   =    8011.184728 E_long   =  -10765.727575 Press    =   -9259.669519 
---------------- Step      160 ----- CPU =      7.4808 (sec) ----------------
TotEng   =   -2475.631157 KinEng   =       0.000000 Temp     =       0.000000 
PotEng   =   -2475.631157 E_bond   =       6.922058 E_angle  =       3.025087 
E_dihed  =       0.000000 E_impro  =       0.000000 E_vdwl   =     273.022274 
E_coul   =    8007.147824 E_long   =  -10765.748400 Press    =   -9311.248114 
---------------- Step      170 ----- CPU =      7.9843 (sec) ----------------
TotEng   =   -2479.450087 KinEng   =       0.000000 Temp     =       0.000000 
PotEng   =   -2479.450087 E_bond   =       6.920051 E_angle  =       3.026599 
E_dihed  =       0.000000 E_impro  =       0.000000 E_vdwl   =     273.147003 
E_coul   =    8003.224703 E_long   =  -10765.768442 Press    =   -9357.442090 
---------------- Step      180 ----- CPU =      8.4859 (sec) ----------------
TotEng   =   -2483.284698 KinEng   =       0.000000 Temp     =       0.000000 
PotEng   =   -2483.284698 E_bond   =       6.918751 E_angle  =       3.027989 
E_dihed  =       0.000000 E_impro  =       0.000000 E_vdwl   =     273.294053 
E_coul   =    7999.262239 E_long   =  -10765.787730 Press    =   -9405.200364 
---------------- Step      190 ----- CPU =      8.9873 (sec) ----------------
TotEng   =   -2487.060667 KinEng   =       0.000000 Temp     =       0.000000 
PotEng   =   -2487.060667 E_bond   =       6.921293 E_angle  =       3.029418 
E_dihed  =       0.000000 E_impro  =       0.000000 E_vdwl   =     273.463040 
E_coul   =    7995.331935 E_long   =  -10765.806351 Press    =   -9450.888202 
---------------- Step      200 ----- CPU =      9.4885 (sec) ----------------
TotEng   =   -2490.753673 KinEng   =       0.000000 Temp     =       0.000000 
PotEng   =   -2490.753673 E_bond   =       6.919594 E_angle  =       3.030728 
E_dihed  =       0.000000 E_impro  =       0.000000 E_vdwl   =     273.656999 
E_coul   =    7991.463204 E_long   =  -10765.824199 Press    =   -9492.894117 
---------------- Step      210 ----- CPU =      9.9909 (sec) ----------------
TotEng   =   -2494.454863 KinEng   =       0.000000 Temp     =       0.000000 
PotEng   =   -2494.454863 E_bond   =       7.017453 E_angle  =       3.031910 
E_dihed  =       0.000000 E_impro  =       0.000000 E_vdwl   =     273.842128 
E_coul   =    7987.496711 E_long   =  -10765.843066 Press    =   -9537.763728 
---------------- Step      220 ----- CPU =     10.4918 (sec) ----------------
TotEng   =   -2497.928076 KinEng   =       0.000000 Temp     =       0.000000 
PotEng   =   -2497.928076 E_bond   =       6.922413 E_angle  =       3.033078 
E_dihed  =       0.000000 E_impro  =       0.000000 E_vdwl   =     274.092602 
E_coul   =    7983.880379 E_long   =  -10765.856549 Press    =   -9580.110181 
---------------- Step      230 ----- CPU =     10.9947 (sec) ----------------
TotEng   =   -2501.284769 KinEng   =       0.000000 Temp     =       0.000000 
PotEng   =   -2501.284769 E_bond   =       6.974799 E_angle  =       3.034140 
E_dihed  =       0.000000 E_impro  =       0.000000 E_vdwl   =     274.313791 
E_coul   =    7980.264516 E_long   =  -10765.872015 Press    =   -9620.083922 
---------------- Step      240 ----- CPU =     11.4981 (sec) ----------------
TotEng   =   -2504.704073 KinEng   =       0.000000 Temp     =       0.000000 
PotEng   =   -2504.704073 E_bond   =       6.973966 E_angle  =       3.035173 
E_dihed  =       0.000000 E_impro  =       0.000000 E_vdwl   =     274.581148 
E_coul   =    7976.591947 E_long   =  -10765.886306 Press    =   -9659.209334 
---------------- Step      250 ----- CPU =     12.0015 (sec) ----------------
TotEng   =   -2507.953105 KinEng   =       0.000000 Temp     =       0.000000 
PotEng   =   -2507.953105 E_bond   =       6.963182 E_angle  =       3.036211 
E_dihed  =       0.000000 E_impro  =       0.000000 E_vdwl   =     274.867381 
E_coul   =    7973.079577 E_long   =  -10765.899456 Press    =   -9693.236443 
---------------- Step      260 ----- CPU =     12.5045 (sec) ----------------
TotEng   =   -2511.198437 KinEng   =       0.000000 Temp     =       0.000000 
PotEng   =   -2511.198437 E_bond   =       6.979953 E_angle  =       3.037209 
E_dihed  =       0.000000 E_impro  =       0.000000 E_vdwl   =     275.160314 
E_coul   =    7969.536493 E_long   =  -10765.912406 Press    =   -9729.938847 
---------------- Step      270 ----- CPU =     13.0064 (sec) ----------------
TotEng   =   -2514.271329 KinEng   =       0.000000 Temp     =       0.000000 
PotEng   =   -2514.271329 E_bond   =       6.987521 E_angle  =       3.038142 
E_dihed  =       0.000000 E_impro  =       0.000000 E_vdwl   =     275.475013 
E_coul   =    7966.152532 E_long   =  -10765.924536 Press    =   -9759.316720 
---------------- Step      280 ----- CPU =     13.5078 (sec) ----------------
TotEng   =   -2517.275711 KinEng   =       0.000000 Temp     =       0.000000 
PotEng   =   -2517.275711 E_bond   =       6.995207 E_angle  =       3.039060 
E_dihed  =       0.000000 E_impro  =       0.000000 E_vdwl   =     275.805155 
E_coul   =    7962.820802 E_long   =  -10765.935935 Press    =   -9787.510986 
---------------- Step      290 ----- CPU =     14.0092 (sec) ----------------
TotEng   =   -2520.283483 KinEng   =       0.000000 Temp     =       0.000000 
PotEng   =   -2520.283483 E_bond   =       7.003540 E_angle  =       3.039965 
E_dihed  =       0.000000 E_impro  =       0.000000 E_vdwl   =     276.152926 
E_coul   =    7959.466790 E_long   =  -10765.946706 Press    =   -9817.349547 
---------------- Step      298 ----- CPU =     14.4154 (sec) ----------------
TotEng   =   -2522.606397 KinEng   =       0.000000 Temp     =       0.000000 
PotEng   =   -2522.606397 E_bond   =       7.015644 E_angle  =       3.040681 
E_dihed  =       0.000000 E_impro  =       0.000000 E_vdwl   =     276.436441 
E_coul   =    7956.855669 E_long   =  -10765.954832 Press    =   -9839.673927 
Loop time of 14.4154 on 1 procs for 298 steps with 648 atoms

Minimization stats:
  Stopping criterion = energy tolerance
  Energy initial, next-to-last, final = 
         3892.70465905     -2522.36113508     -2522.60639662
  Force two-norm initial, final = 11785.1 58.2659
  Force max component initial, final = 526.602 4.91304
  Final line search alpha, max atom move = 5.09294e-05 0.000250218
  Iterations, force evaluations = 298 2297

Pair  time (%) = 12.9713 (89.9822)
Bond  time (%) = 0.0927284 (0.643257)
Kspce time (%) = 1.19769 (8.30841)
Neigh time (%) = 0 (0)
Comm  time (%) = 0.101183 (0.701906)
Outpt time (%) = 0.00988698 (0.068586)
Other time (%) = 0.0426178 (0.29564)

FFT time (% of Kspce) = 0.0362251 (3.02457)
FFT Gflps 3d (1d only) = 0.525502 0.593222

Nlocal:    648 ave 648 max 648 min
Histogram: 1 0 0 0 0 0 0 0 0 0
Nghost:    7011 ave 7011 max 7011 min
Histogram: 1 0 0 0 0 0 0 0 0 0
Neighs:    229281 ave 229281 max 229281 min
Histogram: 1 0 0 0 0 0 0 0 0 0

Total # of neighbors = 229281
Ave neighs/atom = 353.829
Ave special neighs/atom = 2
Neighbor list builds = 0
Dangerous builds = 0
min_style       cg
minimize        1.0e-4 1.0e-4 500 5000
WARNING: Resetting reneighboring criteria during minimization (../min.cpp:173)
PPPM initialization ...
  G vector (1/distance) = 0.246947
  grid = 8 8 8
  stencil order = 5
  estimated absolute RMS force accuracy = 0.0750083
  estimated relative force accuracy = 0.000225885
  using double precision FFTs
  3d grid and FFT values/proc = 2197 512
Memory usage per processor = 6.27345 Mbytes
---------------- Step      298 ----- CPU =      0.0000 (sec) ----------------
TotEng   =   -2522.606397 KinEng   =       0.000000 Temp     =       0.000000 
PotEng   =   -2522.606397 E_bond   =       7.015644 E_angle  =       3.040681 
E_dihed  =       0.000000 E_impro  =       0.000000 E_vdwl   =     276.436441 
E_coul   =    7956.855669 E_long   =  -10765.954832 Press    =   -9839.673927 
---------------- Step      300 ----- CPU =      0.0655 (sec) ----------------
TotEng   =   -2538.063949 KinEng   =       0.000000 Temp     =       0.000000 
PotEng   =   -2538.063949 E_bond   =      18.545516 E_angle  =       3.134784 
E_dihed  =       0.000000 E_impro  =       0.000000 E_vdwl   =     279.651453 
E_coul   =    7926.678130 E_long   =  -10766.073832 Press    =  -13445.368383 
---------------- Step      305 ----- CPU =      0.2218 (sec) ----------------
TotEng   =   -2588.714627 KinEng   =       0.000000 Temp     =       0.000000 
PotEng   =   -2588.714627 E_bond   =       7.183435 E_angle  =       3.576643 
E_dihed  =       0.000000 E_impro  =       0.000000 E_vdwl   =     297.244796 
E_coul   =    7869.351427 E_long   =  -10766.070929 Press    =   -9771.547983 
Loop time of 0.221803 on 1 procs for 7 steps with 648 atoms

Minimization stats:
  Stopping criterion = energy tolerance
  Energy initial, next-to-last, final = 
        -2522.60639662     -2588.46946201     -2588.71462737
  Force two-norm initial, final = 58.2659 62.9443
  Force max component initial, final = 4.91304 8.32483
  Final line search alpha, max atom move = 3.01999e-05 0.000251409
  Iterations, force evaluations = 7 33

Pair  time (%) = 0.198107 (89.3169)
Bond  time (%) = 0.00139785 (0.630221)
Kspce time (%) = 0.0184317 (8.30993)
Neigh time (%) = 0 (0)
Comm  time (%) = 0.00156927 (0.707507)
Outpt time (%) = 0.000803947 (0.36246)
Other time (%) = 0.00149274 (0.673002)

FFT time (% of Kspce) = 0.000872755 (4.73509)
FFT Gflps 3d (1d only) = 0.512358 0.574988

Nlocal:    648 ave 648 max 648 min
Histogram: 1 0 0 0 0 0 0 0 0 0
Nghost:    7013 ave 7013 max 7013 min
Histogram: 1 0 0 0 0 0 0 0 0 0
Neighs:    229282 ave 229282 max 229282 min
Histogram: 1 0 0 0 0 0 0 0 0 0

Total # of neighbors = 229282
Ave neighs/atom = 353.83
Ave special neighs/atom = 2
Neighbor list builds = 0
Dangerous builds = 0
#now minimize the entire system
minimize        1.0e-4 1.0e-4 500 5000
WARNING: Resetting reneighboring criteria during minimization (../min.cpp:173)
PPPM initialization ...
  G vector (1/distance) = 0.246947
  grid = 8 8 8
  stencil order = 5
  estimated absolute RMS force accuracy = 0.0750083
  estimated relative force accuracy = 0.000225885
  using double precision FFTs
  3d grid and FFT values/proc = 2197 512
Memory usage per processor = 6.27345 Mbytes
---------------- Step      305 ----- CPU =      0.0000 (sec) ----------------
TotEng   =   -2588.714627 KinEng   =       0.000000 Temp     =       0.000000 
PotEng   =   -2588.714627 E_bond   =       7.183435 E_angle  =       3.576643 
E_dihed  =       0.000000 E_impro  =       0.000000 E_vdwl   =     297.244796 
E_coul   =    7869.351427 E_long   =  -10766.070929 Press    =   -9771.547983 
---------------- Step      306 ----- CPU =      0.0662 (sec) ----------------
TotEng   =   -2588.831988 KinEng   =       0.000000 Temp     =       0.000000 
PotEng   =   -2588.831988 E_bond   =       7.170891 E_angle  =       3.372657 
E_dihed  =       0.000000 E_impro  =       0.000000 E_vdwl   =     297.186862 
E_coul   =    7869.513395 E_long   =  -10766.075792 Press    =   -9594.313811 
Loop time of 0.066294 on 1 procs for 1 steps with 648 atoms

Minimization stats:
  Stopping criterion = energy tolerance
  Energy initial, next-to-last, final = 
        -2588.71462737     -2588.71462737     -2588.83198761
  Force two-norm initial, final = 62.9443 40.6495
  Force max component initial, final = 8.32483 5.90791
  Final line search alpha, max atom move = 4.69229e-05 0.000277216
  Iterations, force evaluations = 1 9

Pair  time (%) = 0.0591562 (89.2331)
Bond  time (%) = 0.000422478 (0.637279)
Kspce time (%) = 0.00528812 (7.97678)
Neigh time (%) = 0 (0)
Comm  time (%) = 0.000467539 (0.705251)
Outpt time (%) = 0 (0)
Other time (%) = 0.000959635 (1.44754)

FFT time (% of Kspce) = 0.000121794 (2.30315)
FFT Gflps 3d (1d only) = 0.524498 0.592221

Nlocal:    648 ave 648 max 648 min
Histogram: 1 0 0 0 0 0 0 0 0 0
Nghost:    7010 ave 7010 max 7010 min
Histogram: 1 0 0 0 0 0 0 0 0 0
Neighs:    229171 ave 229171 max 229171 min
Histogram: 1 0 0 0 0 0 0 0 0 0

Total # of neighbors = 229171
Ave neighs/atom = 353.659
Ave special neighs/atom = 2
Neighbor list builds = 0
Dangerous builds = 0
undump          1


print                          .
.
print =====================================
=====================================
print "NVT dynamics to heat system"
NVT dynamics to heat system
print =====================================
=====================================
print            .
.

reset_timestep  0
timestep        1.0
fix             shakeH all shake 0.0001 20 500 m 1.008 a 1
  0 = # of size 2 clusters
  0 = # of size 3 clusters
  0 = # of size 4 clusters
  216 = # of frozen angles
velocity        all create 0.0 12345678 dist uniform
thermo          100
thermo_style    multi
WARNING: New thermo_style command, previous thermo_modify settings will be lost (../output.cpp:664)
timestep        1.0
dump            1 all custom 1000 ${sname}.heat.lammpstrj id type xu yu zu vx vy vz
dump            1 all custom 1000 watbox.spc.heat.lammpstrj id type xu yu zu vx vy vz
fix             4 all nvt temp 1.0 300.0 100.0
run             10000
PPPM initialization ...
  G vector (1/distance) = 0.246947
  grid = 8 8 8
  stencil order = 5
  estimated absolute RMS force accuracy = 0.0750083
  estimated relative force accuracy = 0.000225885
  using double precision FFTs
  3d grid and FFT values/proc = 2197 512
SHAKE stats (type/ave/delta) on step 0
  1 1.00164 0.00303496
  1 109.255 0.361762
Memory usage per processor = 6.27345 Mbytes
---------------- Step        0 ----- CPU =      0.0000 (sec) ----------------
TotEng   =     -2599.3755 KinEng   =         0.0000 Temp     =         0.0000 
PotEng   =     -2599.3755 E_bond   =         0.0000 E_angle  =         0.0000 
E_dihed  =         0.0000 E_impro  =         0.0000 E_vdwl   =       297.1869 
E_coul   =      7869.5134 E_long   =    -10766.0758 Press    =    -20799.5472 
---------------- Step      100 ----- CPU =      0.4576 (sec) ----------------
TotEng   =     -2645.7779 KinEng   =        49.3156 Temp     =        38.3860 
PotEng   =     -2695.0935 E_bond   =         0.0000 E_angle  =         0.0000 
E_dihed  =         0.0000 E_impro  =         0.0000 E_vdwl   =       406.8668 
E_coul   =      7663.9001 E_long   =    -10765.8603 Press    =     -7720.5776 
---------------- Step      200 ----- CPU =      0.9269 (sec) ----------------
TotEng   =     -2719.8529 KinEng   =        35.5297 Temp     =        27.6554 
PotEng   =     -2755.3825 E_bond   =         0.0000 E_angle  =         0.0000 
E_dihed  =         0.0000 E_impro  =         0.0000 E_vdwl   =       463.3039 
E_coul   =      7547.3077 E_long   =    -10765.9942 Press    =     -6704.4586 
---------------- Step      300 ----- CPU =      1.3979 (sec) ----------------
TotEng   =     -2760.8474 KinEng   =        27.0451 Temp     =        21.0512 
PotEng   =     -2787.8925 E_bond   =         0.0000 E_angle  =         0.0000 
E_dihed  =         0.0000 E_impro  =         0.0000 E_vdwl   =       474.0342 
E_coul   =      7503.7393 E_long   =    -10765.6661 Press    =     -6800.5474 
---------------- Step      400 ----- CPU =      1.8701 (sec) ----------------
TotEng   =     -2783.2185 KinEng   =        22.2483 Temp     =        17.3175 
PotEng   =     -2805.4668 E_bond   =         0.0000 E_angle  =         0.0000 
E_dihed  =         0.0000 E_impro  =         0.0000 E_vdwl   =       499.3659 
E_coul   =      7460.9622 E_long   =    -10765.7948 Press    =     -6181.3747 
SHAKE stats (type/ave/delta) on step 500
  1 1 1.10625e-06
  1 109.47 7.69442e-05
---------------- Step      500 ----- CPU =      2.3448 (sec) ----------------
TotEng   =     -2796.7620 KinEng   =        20.6220 Temp     =        16.0516 
PotEng   =     -2817.3841 E_bond   =         0.0000 E_angle  =         0.0000 
E_dihed  =         0.0000 E_impro  =         0.0000 E_vdwl   =       501.7898 
E_coul   =      7446.4000 E_long   =    -10765.5739 Press    =     -6177.8817 
---------------- Step      600 ----- CPU =      2.8192 (sec) ----------------
TotEng   =     -2806.4063 KinEng   =        24.0417 Temp     =        18.7135 
PotEng   =     -2830.4480 E_bond   =         0.0000 E_angle  =         0.0000 
E_dihed  =         0.0000 E_impro  =         0.0000 E_vdwl   =       524.2058 
E_coul   =      7411.0035 E_long   =    -10765.6573 Press    =     -5608.1188 
---------------- Step      700 ----- CPU =      3.2849 (sec) ----------------
TotEng   =     -2813.6768 KinEng   =        25.9683 Temp     =        20.2130 
PotEng   =     -2839.6451 E_bond   =         0.0000 E_angle  =         0.0000 
E_dihed  =         0.0000 E_impro  =         0.0000 E_vdwl   =       547.6457 
E_coul   =      7378.5497 E_long   =    -10765.8405 Press    =     -4980.0925 
---------------- Step      800 ----- CPU =      3.7630 (sec) ----------------
TotEng   =     -2816.9358 KinEng   =        25.6259 Temp     =        19.9465 
PotEng   =     -2842.5617 E_bond   =         0.0000 E_angle  =         0.0000 
E_dihed  =         0.0000 E_impro  =         0.0000 E_vdwl   =       565.7355 
E_coul   =      7357.8471 E_long   =    -10766.1443 Press    =     -4421.4968 
---------------- Step      900 ----- CPU =      4.2383 (sec) ----------------
TotEng   =     -2812.4990 KinEng   =        33.3054 Temp     =        25.9241 
PotEng   =     -2845.8044 E_bond   =         0.0000 E_angle  =         0.0000 
E_dihed  =         0.0000 E_impro  =         0.0000 E_vdwl   =       567.4633 
E_coul   =      7352.9985 E_long   =    -10766.2661 Press    =     -4340.6738 
SHAKE stats (type/ave/delta) on step 1000
  1 1 9.96582e-07
  1 109.47 7.79237e-05
---------------- Step     1000 ----- CPU =      4.7116 (sec) ----------------
TotEng   =     -2802.3371 KinEng   =        36.9862 Temp     =        28.7891 
PotEng   =     -2839.3233 E_bond   =         0.0000 E_angle  =         0.0000 
E_dihed  =         0.0000 E_impro  =         0.0000 E_vdwl   =       561.0081 
E_coul   =      7365.4911 E_long   =    -10765.8225 Press    =     -4440.9056 
---------------- Step     1100 ----- CPU =      5.1821 (sec) ----------------
TotEng   =     -2787.9971 KinEng   =        44.0707 Temp     =        34.3035 
PotEng   =     -2832.0678 E_bond   =         0.0000 E_angle  =         0.0000 
E_dihed  =         0.0000 E_impro  =         0.0000 E_vdwl   =       582.6811 
E_coul   =      7351.0600 E_long   =    -10765.8088 Press    =     -3570.2696 
---------------- Step     1200 ----- CPU =      5.6557 (sec) ----------------
TotEng   =     -2775.7171 KinEng   =        50.7061 Temp     =        39.4683 
PotEng   =     -2826.4232 E_bond   =         0.0000 E_angle  =         0.0000 
E_dihed  =         0.0000 E_impro  =         0.0000 E_vdwl   =       584.1045 
E_coul   =      7355.4790 E_long   =    -10766.0067 Press    =     -3430.0214 
---------------- Step     1300 ----- CPU =      6.1316 (sec) ----------------
TotEng   =     -2769.2769 KinEng   =        54.4574 Temp     =        42.3882 
PotEng   =     -2823.7343 E_bond   =         0.0000 E_angle  =         0.0000 
E_dihed  =         0.0000 E_impro  =         0.0000 E_vdwl   =       568.9000 
E_coul   =      7373.5679 E_long   =    -10766.2022 Press    =     -3849.8975 
---------------- Step     1400 ----- CPU =      6.6090 (sec) ----------------
TotEng   =     -2766.8283 KinEng   =        52.6746 Temp     =        41.0005 
PotEng   =     -2819.5028 E_bond   =         0.0000 E_angle  =         0.0000 
E_dihed  =         0.0000 E_impro  =         0.0000 E_vdwl   =       577.1885 
E_coul   =      7369.2548 E_long   =    -10765.9461 Press    =     -3405.4053 
SHAKE stats (type/ave/delta) on step 1500
  1 1 1.09135e-06
  1 109.47 8.43314e-05
---------------- Step     1500 ----- CPU =      7.0852 (sec) ----------------
TotEng   =     -2764.7492 KinEng   =        58.0821 Temp     =        45.2096 
PotEng   =     -2822.8313 E_bond   =         0.0000 E_angle  =         0.0000 
E_dihed  =         0.0000 E_impro  =         0.0000 E_vdwl   =       583.7107 
E_coul   =      7358.7161 E_long   =    -10765.2580 Press    =     -3257.6874 
---------------- Step     1600 ----- CPU =      7.5532 (sec) ----------------
TotEng   =     -2762.6174 KinEng   =        65.2892 Temp     =        50.8194 
PotEng   =     -2827.9066 E_bond   =         0.0000 E_angle  =         0.0000 
E_dihed  =         0.0000 E_impro  =         0.0000 E_vdwl   =       565.7040 
E_coul   =      7372.1784 E_long   =    -10765.7890 Press    =     -3939.4391 
---------------- Step     1700 ----- CPU =      8.0274 (sec) ----------------
TotEng   =     -2763.8038 KinEng   =        62.0575 Temp     =        48.3040 
PotEng   =     -2825.8613 E_bond   =         0.0000 E_angle  =         0.0000 
E_dihed  =         0.0000 E_impro  =         0.0000 E_vdwl   =       580.9809 
E_coul   =      7359.5313 E_long   =    -10766.3735 Press    =     -3507.2161 
---------------- Step     1800 ----- CPU =      8.5016 (sec) ----------------
TotEng   =     -2759.8750 KinEng   =        70.7225 Temp     =        55.0486 
PotEng   =     -2830.5975 E_bond   =         0.0000 E_angle  =         0.0000 
E_dihed  =         0.0000 E_impro  =         0.0000 E_vdwl   =       576.9561 
E_coul   =      7358.4993 E_long   =    -10766.0528 Press    =     -3654.2414 
---------------- Step     1900 ----- CPU =      8.9849 (sec) ----------------
TotEng   =     -2752.0211 KinEng   =        69.1397 Temp     =        53.8166 
PotEng   =     -2821.1608 E_bond   =         0.0000 E_angle  =         0.0000 
E_dihed  =         0.0000 E_impro  =         0.0000 E_vdwl   =       584.3436 
E_coul   =      7360.5254 E_long   =    -10766.0298 Press    =     -3347.8821 
SHAKE stats (type/ave/delta) on step 2000
  1 1 9.52559e-07
  1 109.47 7.86493e-05
---------------- Step     2000 ----- CPU =      9.4550 (sec) ----------------
TotEng   =     -2737.6236 KinEng   =        75.0009 Temp     =        58.3788 
PotEng   =     -2812.6245 E_bond   =         0.0000 E_angle  =         0.0000 
E_dihed  =         0.0000 E_impro  =         0.0000 E_vdwl   =       587.2777 
E_coul   =      7366.9817 E_long   =    -10766.8839 Press    =     -3000.8671 
---------------- Step     2100 ----- CPU =      9.9355 (sec) ----------------
TotEng   =     -2717.8151 KinEng   =        81.7093 Temp     =        63.6004 
PotEng   =     -2799.5244 E_bond   =         0.0000 E_angle  =         0.0000 
E_dihed  =         0.0000 E_impro  =         0.0000 E_vdwl   =       561.2415 
E_coul   =      7405.6693 E_long   =    -10766.4352 Press    =     -3690.3663 
---------------- Step     2200 ----- CPU =     10.4010 (sec) ----------------
TotEng   =     -2700.2532 KinEng   =        92.1732 Temp     =        71.7453 
PotEng   =     -2792.4264 E_bond   =         0.0000 E_angle  =         0.0000 
E_dihed  =         0.0000 E_impro  =         0.0000 E_vdwl   =       587.0588 
E_coul   =      7386.4666 E_long   =    -10765.9519 Press    =     -2697.1317 
---------------- Step     2300 ----- CPU =     10.8745 (sec) ----------------
TotEng   =     -2696.2894 KinEng   =        98.4516 Temp     =        76.6322 
PotEng   =     -2794.7409 E_bond   =         0.0000 E_angle  =         0.0000 
E_dihed  =         0.0000 E_impro  =         0.0000 E_vdwl   =       589.1352 
E_coul   =      7381.9086 E_long   =    -10765.7847 Press    =     -2542.0401 
---------------- Step     2400 ----- CPU =     11.3509 (sec) ----------------
TotEng   =     -2710.3318 KinEng   =        85.7372 Temp     =        66.7357 
PotEng   =     -2796.0691 E_bond   =         0.0000 E_angle  =         0.0000 
E_dihed  =         0.0000 E_impro  =         0.0000 E_vdwl   =       578.5573 
E_coul   =      7391.2159 E_long   =    -10765.8423 Press    =     -2976.6254 
SHAKE stats (type/ave/delta) on step 2500
  1 1 1.02175e-06
  1 109.47 8.25961e-05
---------------- Step     2500 ----- CPU =     11.8257 (sec) ----------------
TotEng   =     -2715.2289 KinEng   =        90.7971 Temp     =        70.6742 
PotEng   =     -2806.0261 E_bond   =         0.0000 E_angle  =         0.0000 
E_dihed  =         0.0000 E_impro  =         0.0000 E_vdwl   =       616.0937 
E_coul   =      7343.4416 E_long   =    -10765.5613 Press    =     -1929.9815 
---------------- Step     2600 ----- CPU =     12.3038 (sec) ----------------
TotEng   =     -2713.3825 KinEng   =        98.4152 Temp     =        76.6039 
PotEng   =     -2811.7977 E_bond   =         0.0000 E_angle  =         0.0000 
E_dihed  =         0.0000 E_impro  =         0.0000 E_vdwl   =       581.9423 
E_coul   =      7372.0166 E_long   =    -10765.7566 Press    =     -3146.8243 
---------------- Step     2700 ----- CPU =     12.7829 (sec) ----------------
TotEng   =     -2705.9705 KinEng   =       100.1021 Temp     =        77.9169 
PotEng   =     -2806.0726 E_bond   =         0.0000 E_angle  =         0.0000 
E_dihed  =         0.0000 E_impro  =         0.0000 E_vdwl   =       568.3549 
E_coul   =      7390.8229 E_long   =    -10765.2504 Press    =     -3352.9643 
---------------- Step     2800 ----- CPU =     13.2601 (sec) ----------------
TotEng   =     -2688.1231 KinEng   =       109.8980 Temp     =        85.5418 
PotEng   =     -2798.0211 E_bond   =         0.0000 E_angle  =         0.0000 
E_dihed  =         0.0000 E_impro  =         0.0000 E_vdwl   =       579.0328 
E_coul   =      7388.6729 E_long   =    -10765.7267 Press    =     -2857.8217 
---------------- Step     2900 ----- CPU =     13.7386 (sec) ----------------
TotEng   =     -2665.8231 KinEng   =       121.2984 Temp     =        94.4155 
PotEng   =     -2787.1215 E_bond   =         0.0000 E_angle  =         0.0000 
E_dihed  =         0.0000 E_impro  =         0.0000 E_vdwl   =       553.1650 
E_coul   =      7425.1674 E_long   =    -10765.4538 Press    =     -3497.3716 
SHAKE stats (type/ave/delta) on step 3000
  1 1 8.3901e-07
  1 109.47 7.98607e-05
---------------- Step     3000 ----- CPU =     14.2179 (sec) ----------------
TotEng   =     -2649.1785 KinEng   =       124.0708 Temp     =        96.5735 
PotEng   =     -2773.2493 E_bond   =         0.0000 E_angle  =         0.0000 
E_dihed  =         0.0000 E_impro  =         0.0000 E_vdwl   =       574.0446 
E_coul   =      7418.2892 E_long   =    -10765.5831 Press    =     -2664.2945 
---------------- Step     3100 ----- CPU =     14.7021 (sec) ----------------
TotEng   =     -2648.5865 KinEng   =       124.6463 Temp     =        97.0215 
PotEng   =     -2773.2329 E_bond   =         0.0000 E_angle  =         0.0000 
E_dihed  =         0.0000 E_impro  =         0.0000 E_vdwl   =       602.6546 
E_coul   =      7389.4340 E_long   =    -10765.3215 Press    =     -1775.1040 
---------------- Step     3200 ----- CPU =     15.1773 (sec) ----------------
TotEng   =     -2651.5381 KinEng   =       122.8751 Temp     =        95.6428 
PotEng   =     -2774.4132 E_bond   =         0.0000 E_angle  =         0.0000 
E_dihed  =         0.0000 E_impro  =         0.0000 E_vdwl   =       595.4967 
E_coul   =      7395.5094 E_long   =    -10765.4193 Press    =     -2077.2784 
---------------- Step     3300 ----- CPU =     15.6532 (sec) ----------------
TotEng   =     -2651.6914 KinEng   =       123.0205 Temp     =        95.7560 
PotEng   =     -2774.7119 E_bond   =         0.0000 E_angle  =         0.0000 
E_dihed  =         0.0000 E_impro  =         0.0000 E_vdwl   =       575.2748 
E_coul   =      7416.0365 E_long   =    -10766.0233 Press    =     -2543.2639 
---------------- Step     3400 ----- CPU =     16.1370 (sec) ----------------
TotEng   =     -2647.4125 KinEng   =       128.0974 Temp     =        99.7077 
PotEng   =     -2775.5099 E_bond   =         0.0000 E_angle  =         0.0000 
E_dihed  =         0.0000 E_impro  =         0.0000 E_vdwl   =       601.4977 
E_coul   =      7388.7732 E_long   =    -10765.7809 Press    =     -1800.0107 
SHAKE stats (type/ave/delta) on step 3500
  1 1 9.6642e-07
  1 109.47 9.06307e-05
---------------- Step     3500 ----- CPU =     16.6142 (sec) ----------------
TotEng   =     -2634.8153 KinEng   =       137.2079 Temp     =       106.7991 
PotEng   =     -2772.0232 E_bond   =         0.0000 E_angle  =         0.0000 
E_dihed  =         0.0000 E_impro  =         0.0000 E_vdwl   =       572.6195 
E_coul   =      7421.4858 E_long   =    -10766.1285 Press    =     -2667.8507 
---------------- Step     3600 ----- CPU =     17.0910 (sec) ----------------
TotEng   =     -2617.2773 KinEng   =       147.1314 Temp     =       114.5233 
PotEng   =     -2764.4086 E_bond   =         0.0000 E_angle  =         0.0000 
E_dihed  =         0.0000 E_impro  =         0.0000 E_vdwl   =       557.1801 
E_coul   =      7443.6043 E_long   =    -10765.1931 Press    =     -3037.6072 
---------------- Step     3700 ----- CPU =     17.5688 (sec) ----------------
TotEng   =     -2605.5771 KinEng   =       146.9078 Temp     =       114.3492 
PotEng   =     -2752.4849 E_bond   =         0.0000 E_angle  =         0.0000 
E_dihed  =         0.0000 E_impro  =         0.0000 E_vdwl   =       558.1742 
E_coul   =      7454.4849 E_long   =    -10765.1440 Press    =     -2931.7693 
---------------- Step     3800 ----- CPU =     18.0467 (sec) ----------------
TotEng   =     -2595.7953 KinEng   =       158.0815 Temp     =       123.0466 
PotEng   =     -2753.8768 E_bond   =         0.0000 E_angle  =         0.0000 
E_dihed  =         0.0000 E_impro  =         0.0000 E_vdwl   =       565.5575 
E_coul   =      7445.1000 E_long   =    -10764.5343 Press    =     -2502.2545 
---------------- Step     3900 ----- CPU =     18.5263 (sec) ----------------
TotEng   =     -2596.0402 KinEng   =       151.2684 Temp     =       117.7434 
PotEng   =     -2747.3086 E_bond   =         0.0000 E_angle  =         0.0000 
E_dihed  =         0.0000 E_impro  =         0.0000 E_vdwl   =       589.7914 
E_coul   =      7427.7015 E_long   =    -10764.8015 Press    =     -1865.3693 
SHAKE stats (type/ave/delta) on step 4000
  1 1 1.0258e-06
  1 109.47 8.31261e-05
---------------- Step     4000 ----- CPU =     19.0148 (sec) ----------------
TotEng   =     -2605.5207 KinEng   =       145.0624 Temp     =       112.9128 
PotEng   =     -2750.5831 E_bond   =         0.0000 E_angle  =         0.0000 
E_dihed  =         0.0000 E_impro  =         0.0000 E_vdwl   =       578.9381 
E_coul   =      7435.7244 E_long   =    -10765.2455 Press    =     -2194.6282 
---------------- Step     4100 ----- CPU =     19.4929 (sec) ----------------
TotEng   =     -2603.3420 KinEng   =       156.2031 Temp     =       121.5845 
PotEng   =     -2759.5451 E_bond   =         0.0000 E_angle  =         0.0000 
E_dihed  =         0.0000 E_impro  =         0.0000 E_vdwl   =       560.1306 
E_coul   =      7445.6510 E_long   =    -10765.3267 Press    =     -2804.2182 
---------------- Step     4200 ----- CPU =     19.9663 (sec) ----------------
TotEng   =     -2587.2460 KinEng   =       158.0398 Temp     =       123.0141 
PotEng   =     -2745.2858 E_bond   =         0.0000 E_angle  =         0.0000 
E_dihed  =         0.0000 E_impro  =         0.0000 E_vdwl   =       580.7725 
E_coul   =      7439.1870 E_long   =    -10765.2454 Press    =     -2052.2259 
---------------- Step     4300 ----- CPU =     20.4443 (sec) ----------------
TotEng   =     -2563.7587 KinEng   =       179.7849 Temp     =       139.9399 
PotEng   =     -2743.5436 E_bond   =         0.0000 E_angle  =         0.0000 
E_dihed  =         0.0000 E_impro  =         0.0000 E_vdwl   =       549.3814 
E_coul   =      7472.7174 E_long   =    -10765.6424 Press    =     -2931.1686 
---------------- Step     4400 ----- CPU =     20.9226 (sec) ----------------
TotEng   =     -2548.8010 KinEng   =       178.3512 Temp     =       138.8240 
PotEng   =     -2727.1522 E_bond   =         0.0000 E_angle  =         0.0000 
E_dihed  =         0.0000 E_impro  =         0.0000 E_vdwl   =       529.5222 
E_coul   =      7509.0234 E_long   =    -10765.6978 Press    =     -3294.2144 
SHAKE stats (type/ave/delta) on step 4500
  1 1 9.42621e-07
  1 109.47 8.98874e-05
---------------- Step     4500 ----- CPU =     21.4031 (sec) ----------------
TotEng   =     -2542.2537 KinEng   =       173.3872 Temp     =       134.9601 
PotEng   =     -2715.6409 E_bond   =         0.0000 E_angle  =         0.0000 
E_dihed  =         0.0000 E_impro  =         0.0000 E_vdwl   =       528.6494 
E_coul   =      7520.7937 E_long   =    -10765.0841 Press    =     -3038.8454 
---------------- Step     4600 ----- CPU =     21.8922 (sec) ----------------
TotEng   =     -2527.7006 KinEng   =       185.7761 Temp     =       144.6033 
PotEng   =     -2713.4767 E_bond   =         0.0000 E_angle  =         0.0000 
E_dihed  =         0.0000 E_impro  =         0.0000 E_vdwl   =       578.8990 
E_coul   =      7472.6284 E_long   =    -10765.0041 Press    =     -1462.3061 
---------------- Step     4700 ----- CPU =     22.3725 (sec) ----------------
TotEng   =     -2527.8053 KinEng   =       190.7601 Temp     =       148.4827 
PotEng   =     -2718.5654 E_bond   =         0.0000 E_angle  =         0.0000 
E_dihed  =         0.0000 E_impro  =         0.0000 E_vdwl   =       573.0728 
E_coul   =      7473.7037 E_long   =    -10765.3418 Press    =     -1647.1903 
---------------- Step     4800 ----- CPU =     22.8618 (sec) ----------------
TotEng   =     -2546.8930 KinEng   =       169.2502 Temp     =       131.7400 
PotEng   =     -2716.1433 E_bond   =         0.0000 E_angle  =         0.0000 
E_dihed  =         0.0000 E_impro  =         0.0000 E_vdwl   =       567.1402 
E_coul   =      7482.6281 E_long   =    -10765.9116 Press    =     -1983.8094 
---------------- Step     4900 ----- CPU =     23.3388 (sec) ----------------
TotEng   =     -2545.5733 KinEng   =       181.0735 Temp     =       140.9429 
PotEng   =     -2726.6467 E_bond   =         0.0000 E_angle  =         0.0000 
E_dihed  =         0.0000 E_impro  =         0.0000 E_vdwl   =       589.9137 
E_coul   =      7448.8677 E_long   =    -10765.4282 Press    =     -1506.7668 
SHAKE stats (type/ave/delta) on step 5000
  1 1 1.11612e-06
  1 109.47 9.4368e-05
---------------- Step     5000 ----- CPU =     23.8199 (sec) ----------------
TotEng   =     -2527.8294 KinEng   =       193.8797 Temp     =       150.9109 
PotEng   =     -2721.7090 E_bond   =         0.0000 E_angle  =         0.0000 
E_dihed  =         0.0000 E_impro  =         0.0000 E_vdwl   =       560.6607 
E_coul   =      7482.6523 E_long   =    -10765.0220 Press    =     -2339.5321 
---------------- Step     5100 ----- CPU =     24.3030 (sec) ----------------
TotEng   =     -2503.8141 KinEng   =       200.5822 Temp     =       156.1280 
PotEng   =     -2704.3963 E_bond   =         0.0000 E_angle  =         0.0000 
E_dihed  =         0.0000 E_impro  =         0.0000 E_vdwl   =       580.2245 
E_coul   =      7480.8601 E_long   =    -10765.4809 Press    =     -1466.4327 
---------------- Step     5200 ----- CPU =     24.7885 (sec) ----------------
TotEng   =     -2481.4182 KinEng   =       200.2059 Temp     =       155.8351 
PotEng   =     -2681.6241 E_bond   =         0.0000 E_angle  =         0.0000 
E_dihed  =         0.0000 E_impro  =         0.0000 E_vdwl   =       532.6618 
E_coul   =      7550.9270 E_long   =    -10765.2129 Press    =     -2606.5431 
---------------- Step     5300 ----- CPU =     25.2746 (sec) ----------------
TotEng   =     -2460.7670 KinEng   =       221.6907 Temp     =       172.5583 
PotEng   =     -2682.4577 E_bond   =         0.0000 E_angle  =         0.0000 
E_dihed  =         0.0000 E_impro  =         0.0000 E_vdwl   =       533.3205 
E_coul   =      7549.5707 E_long   =    -10765.3489 Press    =     -2510.9148 
---------------- Step     5400 ----- CPU =     25.7621 (sec) ----------------
TotEng   =     -2459.3181 KinEng   =       214.7908 Temp     =       167.1876 
PotEng   =     -2674.1089 E_bond   =         0.0000 E_angle  =         0.0000 
E_dihed  =         0.0000 E_impro  =         0.0000 E_vdwl   =       537.8432 
E_coul   =      7553.9076 E_long   =    -10765.8598 Press    =     -2252.6383 
SHAKE stats (type/ave/delta) on step 5500
  1 1 1.44943e-06
  1 109.47 0.000100306
---------------- Step     5500 ----- CPU =     26.2501 (sec) ----------------
TotEng   =     -2474.6589 KinEng   =       214.0246 Temp     =       166.5912 
PotEng   =     -2688.6835 E_bond   =         0.0000 E_angle  =         0.0000 
E_dihed  =         0.0000 E_impro  =         0.0000 E_vdwl   =       578.4985 
E_coul   =      7497.6179 E_long   =    -10764.7998 Press    =     -1149.3561 
---------------- Step     5600 ----- CPU =     26.7305 (sec) ----------------
TotEng   =     -2480.1370 KinEng   =       198.9084 Temp     =       154.8252 
PotEng   =     -2679.0454 E_bond   =         0.0000 E_angle  =         0.0000 
E_dihed  =         0.0000 E_impro  =         0.0000 E_vdwl   =       551.4946 
E_coul   =      7534.9825 E_long   =    -10765.5225 Press    =     -1938.9428 
---------------- Step     5700 ----- CPU =     27.2165 (sec) ----------------
TotEng   =     -2470.4038 KinEng   =       205.6418 Temp     =       160.0662 
PotEng   =     -2676.0456 E_bond   =         0.0000 E_angle  =         0.0000 
E_dihed  =         0.0000 E_impro  =         0.0000 E_vdwl   =       561.9179 
E_coul   =      7527.6625 E_long   =    -10765.6260 Press    =     -1549.1724 
---------------- Step     5800 ----- CPU =     27.7047 (sec) ----------------
TotEng   =     -2449.9366 KinEng   =       228.4294 Temp     =       177.8035 
PotEng   =     -2678.3660 E_bond   =         0.0000 E_angle  =         0.0000 
E_dihed  =         0.0000 E_impro  =         0.0000 E_vdwl   =       597.2146 
E_coul   =      7489.7188 E_long   =    -10765.2993 Press    =      -396.2115 
---------------- Step     5900 ----- CPU =     28.1926 (sec) ----------------
TotEng   =     -2439.6467 KinEng   =       236.0666 Temp     =       183.7482 
PotEng   =     -2675.7133 E_bond   =         0.0000 E_angle  =         0.0000 
E_dihed  =         0.0000 E_impro  =         0.0000 E_vdwl   =       604.3241 
E_coul   =      7484.7029 E_long   =    -10764.7403 Press    =      -183.8515 
SHAKE stats (type/ave/delta) on step 6000
  1 1 8.66498e-07
  1 109.47 8.40205e-05
---------------- Step     6000 ----- CPU =     28.6805 (sec) ----------------
TotEng   =     -2439.4130 KinEng   =       223.5216 Temp     =       173.9834 
PotEng   =     -2662.9345 E_bond   =         0.0000 E_angle  =         0.0000 
E_dihed  =         0.0000 E_impro  =         0.0000 E_vdwl   =       586.2176 
E_coul   =      7516.8840 E_long   =    -10766.0361 Press    =      -446.5777 
---------------- Step     6100 ----- CPU =     29.1629 (sec) ----------------
TotEng   =     -2440.0950 KinEng   =       246.5313 Temp     =       191.8936 
PotEng   =     -2686.6263 E_bond   =         0.0000 E_angle  =         0.0000 
E_dihed  =         0.0000 E_impro  =         0.0000 E_vdwl   =       545.3180 
E_coul   =      7534.2096 E_long   =    -10766.1539 Press    =     -1887.8131 
---------------- Step     6200 ----- CPU =     29.6405 (sec) ----------------
TotEng   =     -2444.2370 KinEng   =       236.5963 Temp     =       184.1604 
PotEng   =     -2680.8333 E_bond   =         0.0000 E_angle  =         0.0000 
E_dihed  =         0.0000 E_impro  =         0.0000 E_vdwl   =       560.0723 
E_coul   =      7525.2185 E_long   =    -10766.1241 Press    =     -1688.1809 
---------------- Step     6300 ----- CPU =     30.1202 (sec) ----------------
TotEng   =     -2433.0185 KinEng   =       247.7335 Temp     =       192.8293 
PotEng   =     -2680.7519 E_bond   =         0.0000 E_angle  =         0.0000 
E_dihed  =         0.0000 E_impro  =         0.0000 E_vdwl   =       568.8916 
E_coul   =      7516.3513 E_long   =    -10765.9948 Press    =     -1294.5296 
---------------- Step     6400 ----- CPU =     30.6180 (sec) ----------------
TotEng   =     -2412.9962 KinEng   =       241.4955 Temp     =       187.9739 
PotEng   =     -2654.4917 E_bond   =         0.0000 E_angle  =         0.0000 
E_dihed  =         0.0000 E_impro  =         0.0000 E_vdwl   =       584.7017 
E_coul   =      7525.4738 E_long   =    -10764.6673 Press    =      -416.9477 
SHAKE stats (type/ave/delta) on step 6500
  1 1 1.08643e-06
  1 109.47 0.000127903
---------------- Step     6500 ----- CPU =     31.1044 (sec) ----------------
TotEng   =     -2392.1148 KinEng   =       247.8310 Temp     =       192.9052 
PotEng   =     -2639.9457 E_bond   =         0.0000 E_angle  =         0.0000 
E_dihed  =         0.0000 E_impro  =         0.0000 E_vdwl   =       574.7488 
E_coul   =      7550.3028 E_long   =    -10764.9973 Press    =      -664.9995 
---------------- Step     6600 ----- CPU =     31.5934 (sec) ----------------
TotEng   =     -2370.8036 KinEng   =       264.5213 Temp     =       205.8965 
PotEng   =     -2635.3248 E_bond   =         0.0000 E_angle  =         0.0000 
E_dihed  =         0.0000 E_impro  =         0.0000 E_vdwl   =       579.8000 
E_coul   =      7549.8845 E_long   =    -10765.0094 Press    =      -324.8071 
---------------- Step     6700 ----- CPU =     32.0810 (sec) ----------------
TotEng   =     -2366.6913 KinEng   =       261.0045 Temp     =       203.1592 
PotEng   =     -2627.6959 E_bond   =         0.0000 E_angle  =         0.0000 
E_dihed  =         0.0000 E_impro  =         0.0000 E_vdwl   =       577.6163 
E_coul   =      7560.1155 E_long   =    -10765.4277 Press    =      -297.9809 
---------------- Step     6800 ----- CPU =     32.5784 (sec) ----------------
TotEng   =     -2370.0474 KinEng   =       257.8757 Temp     =       200.7238 
PotEng   =     -2627.9231 E_bond   =         0.0000 E_angle  =         0.0000 
E_dihed  =         0.0000 E_impro  =         0.0000 E_vdwl   =       573.2163 
E_coul   =      7563.8531 E_long   =    -10764.9925 Press    =      -443.5653 
---------------- Step     6900 ----- CPU =     33.0565 (sec) ----------------
TotEng   =     -2370.6030 KinEng   =       267.8032 Temp     =       208.4511 
PotEng   =     -2638.4062 E_bond   =         0.0000 E_angle  =         0.0000 
E_dihed  =         0.0000 E_impro  =         0.0000 E_vdwl   =       545.6915 
E_coul   =      7580.8956 E_long   =    -10764.9933 Press    =     -1441.5502 
SHAKE stats (type/ave/delta) on step 7000
  1 1 1.04795e-06
  1 109.47 9.27538e-05
---------------- Step     7000 ----- CPU =     33.5568 (sec) ----------------
TotEng   =     -2364.0991 KinEng   =       256.9295 Temp     =       199.9873 
PotEng   =     -2621.0286 E_bond   =         0.0000 E_angle  =         0.0000 
E_dihed  =         0.0000 E_impro  =         0.0000 E_vdwl   =       540.7654 
E_coul   =      7603.2576 E_long   =    -10765.0516 Press    =     -1287.9350 
---------------- Step     7100 ----- CPU =     34.0421 (sec) ----------------
TotEng   =     -2332.3312 KinEng   =       271.5035 Temp     =       211.3313 
PotEng   =     -2603.8347 E_bond   =         0.0000 E_angle  =         0.0000 
E_dihed  =         0.0000 E_impro  =         0.0000 E_vdwl   =       520.2701 
E_coul   =      7640.9092 E_long   =    -10765.0140 Press    =     -1712.4778 
---------------- Step     7200 ----- CPU =     34.5319 (sec) ----------------
TotEng   =     -2291.3194 KinEng   =       296.1379 Temp     =       230.5061 
PotEng   =     -2587.4574 E_bond   =         0.0000 E_angle  =         0.0000 
E_dihed  =         0.0000 E_impro  =         0.0000 E_vdwl   =       558.4796 
E_coul   =      7619.7454 E_long   =    -10765.6823 Press    =      -121.6227 
---------------- Step     7300 ----- CPU =     35.0209 (sec) ----------------
TotEng   =     -2279.2023 KinEng   =       292.7271 Temp     =       227.8512 
PotEng   =     -2571.9294 E_bond   =         0.0000 E_angle  =         0.0000 
E_dihed  =         0.0000 E_impro  =         0.0000 E_vdwl   =       561.5658 
E_coul   =      7633.0307 E_long   =    -10766.5259 Press    =       195.6112 
---------------- Step     7400 ----- CPU =     35.5186 (sec) ----------------
TotEng   =     -2305.8983 KinEng   =       299.6824 Temp     =       233.2650 
PotEng   =     -2605.5807 E_bond   =         0.0000 E_angle  =         0.0000 
E_dihed  =         0.0000 E_impro  =         0.0000 E_vdwl   =       563.9813 
E_coul   =      7596.7388 E_long   =    -10766.3008 Press    =      -216.8386 
SHAKE stats (type/ave/delta) on step 7500
  1 1 1.5761e-06
  1 109.47 0.000133099
---------------- Step     7500 ----- CPU =     36.0281 (sec) ----------------
TotEng   =     -2336.2024 KinEng   =       275.8572 Temp     =       214.7201 
PotEng   =     -2612.0596 E_bond   =         0.0000 E_angle  =         0.0000 
E_dihed  =         0.0000 E_impro  =         0.0000 E_vdwl   =       518.6238 
E_coul   =      7635.2703 E_long   =    -10765.9538 Press    =     -1907.0946 
---------------- Step     7600 ----- CPU =     36.5295 (sec) ----------------
TotEng   =     -2338.3669 KinEng   =       286.6629 Temp     =       223.1310 
PotEng   =     -2625.0298 E_bond   =         0.0000 E_angle  =         0.0000 
E_dihed  =         0.0000 E_impro  =         0.0000 E_vdwl   =       542.9294 
E_coul   =      7597.4453 E_long   =    -10765.4044 Press    =     -1237.0301 
---------------- Step     7700 ----- CPU =     37.0301 (sec) ----------------
TotEng   =     -2304.7728 KinEng   =       289.1382 Temp     =       225.0577 
PotEng   =     -2593.9110 E_bond   =         0.0000 E_angle  =         0.0000 
E_dihed  =         0.0000 E_impro  =         0.0000 E_vdwl   =       535.4394 
E_coul   =      7636.9617 E_long   =    -10766.3121 Press    =     -1009.1849 
---------------- Step     7800 ----- CPU =     37.5307 (sec) ----------------
TotEng   =     -2254.8677 KinEng   =       318.8619 Temp     =       248.1939 
PotEng   =     -2573.7297 E_bond   =         0.0000 E_angle  =         0.0000 
E_dihed  =         0.0000 E_impro  =         0.0000 E_vdwl   =       553.2366 
E_coul   =      7636.4737 E_long   =    -10763.4400 Press    =      -116.0181 
---------------- Step     7900 ----- CPU =     38.0233 (sec) ----------------
TotEng   =     -2222.2236 KinEng   =       327.3353 Temp     =       254.7893 
PotEng   =     -2549.5589 E_bond   =         0.0000 E_angle  =         0.0000 
E_dihed  =         0.0000 E_impro  =         0.0000 E_vdwl   =       496.3855 
E_coul   =      7719.5498 E_long   =    -10765.4942 Press    =     -1539.7722 
SHAKE stats (type/ave/delta) on step 8000
  1 1 1.11019e-06
  1 109.47 0.00010043
---------------- Step     8000 ----- CPU =     38.5273 (sec) ----------------
TotEng   =     -2216.9025 KinEng   =       327.2103 Temp     =       254.6921 
PotEng   =     -2544.1128 E_bond   =         0.0000 E_angle  =         0.0000 
E_dihed  =         0.0000 E_impro  =         0.0000 E_vdwl   =       526.2898 
E_coul   =      7694.9543 E_long   =    -10765.3568 Press    =      -519.7705 
---------------- Step     8100 ----- CPU =     39.0220 (sec) ----------------
TotEng   =     -2240.7463 KinEng   =       334.3779 Temp     =       260.2711 
PotEng   =     -2575.1242 E_bond   =         0.0000 E_angle  =         0.0000 
E_dihed  =         0.0000 E_impro  =         0.0000 E_vdwl   =       530.9682 
E_coul   =      7659.0596 E_long   =    -10765.1519 Press    =      -910.4436 
---------------- Step     8200 ----- CPU =     39.5315 (sec) ----------------
TotEng   =     -2277.2101 KinEng   =       296.5949 Temp     =       230.8618 
PotEng   =     -2573.8049 E_bond   =         0.0000 E_angle  =         0.0000 
E_dihed  =         0.0000 E_impro  =         0.0000 E_vdwl   =       521.3828 
E_coul   =      7670.8882 E_long   =    -10766.0760 Press    =     -1095.8223 
---------------- Step     8300 ----- CPU =     40.0202 (sec) ----------------
TotEng   =     -2282.8287 KinEng   =       291.0397 Temp     =       226.5378 
PotEng   =     -2573.8683 E_bond   =         0.0000 E_angle  =         0.0000 
E_dihed  =         0.0000 E_impro  =         0.0000 E_vdwl   =       578.3743 
E_coul   =      7611.5815 E_long   =    -10763.8241 Press    =       611.8566 
---------------- Step     8400 ----- CPU =     40.5314 (sec) ----------------
TotEng   =     -2253.0714 KinEng   =       318.1064 Temp     =       247.6058 
PotEng   =     -2571.1778 E_bond   =         0.0000 E_angle  =         0.0000 
E_dihed  =         0.0000 E_impro  =         0.0000 E_vdwl   =       538.3472 
E_coul   =      7654.3857 E_long   =    -10763.9108 Press    =      -422.1062 
SHAKE stats (type/ave/delta) on step 8500
  1 1 1.43025e-06
  1 109.47 0.000150437
---------------- Step     8500 ----- CPU =     41.0334 (sec) ----------------
TotEng   =     -2210.0405 KinEng   =       329.1238 Temp     =       256.1815 
PotEng   =     -2539.1643 E_bond   =         0.0000 E_angle  =         0.0000 
E_dihed  =         0.0000 E_impro  =         0.0000 E_vdwl   =       519.8916 
E_coul   =      7706.9454 E_long   =    -10766.0014 Press    =      -694.5856 
---------------- Step     8600 ----- CPU =     41.5255 (sec) ----------------
TotEng   =     -2171.2820 KinEng   =       340.3583 Temp     =       264.9261 
PotEng   =     -2511.6403 E_bond   =         0.0000 E_angle  =         0.0000 
E_dihed  =         0.0000 E_impro  =         0.0000 E_vdwl   =       544.4828 
E_coul   =      7709.6792 E_long   =    -10765.8023 Press    =       524.5307 
---------------- Step     8700 ----- CPU =     42.0278 (sec) ----------------
TotEng   =     -2153.6921 KinEng   =       378.0918 Temp     =       294.2969 
PotEng   =     -2531.7839 E_bond   =         0.0000 E_angle  =         0.0000 
E_dihed  =         0.0000 E_impro  =         0.0000 E_vdwl   =       549.6825 
E_coul   =      7683.6536 E_long   =    -10765.1200 Press    =       694.3009 
---------------- Step     8800 ----- CPU =     42.5322 (sec) ----------------
TotEng   =     -2187.8746 KinEng   =       349.6225 Temp     =       272.1371 
PotEng   =     -2537.4971 E_bond   =         0.0000 E_angle  =         0.0000 
E_dihed  =         0.0000 E_impro  =         0.0000 E_vdwl   =       565.2143 
E_coul   =      7662.6077 E_long   =    -10765.3191 Press    =       958.5124 
---------------- Step     8900 ----- CPU =     43.0242 (sec) ----------------
TotEng   =     -2229.4997 KinEng   =       320.6372 Temp     =       249.5757 
PotEng   =     -2550.1369 E_bond   =         0.0000 E_angle  =         0.0000 
E_dihed  =         0.0000 E_impro  =         0.0000 E_vdwl   =       546.9065 
E_coul   =      7667.0517 E_long   =    -10764.0950 Press    =       -50.3866 
SHAKE stats (type/ave/delta) on step 9000
  1 1 1.60305e-06
  1 109.47 0.000126385
---------------- Step     9000 ----- CPU =     43.5185 (sec) ----------------
TotEng   =     -2222.7341 KinEng   =       332.3614 Temp     =       258.7016 
PotEng   =     -2555.0955 E_bond   =         0.0000 E_angle  =         0.0000 
E_dihed  =         0.0000 E_impro  =         0.0000 E_vdwl   =       580.5017 
E_coul   =      7629.1688 E_long   =    -10764.7660 Press    =      1046.9684 
---------------- Step     9100 ----- CPU =     44.0215 (sec) ----------------
TotEng   =     -2180.8862 KinEng   =       352.8506 Temp     =       274.6498 
PotEng   =     -2533.7368 E_bond   =         0.0000 E_angle  =         0.0000 
E_dihed  =         0.0000 E_impro  =         0.0000 E_vdwl   =       569.5913 
E_coul   =      7660.0222 E_long   =    -10763.3503 Press    =      1061.4154 
---------------- Step     9200 ----- CPU =     44.5109 (sec) ----------------
TotEng   =     -2131.8311 KinEng   =       366.2082 Temp     =       285.0470 
PotEng   =     -2498.0393 E_bond   =         0.0000 E_angle  =         0.0000 
E_dihed  =         0.0000 E_impro  =         0.0000 E_vdwl   =       503.2418 
E_coul   =      7762.0317 E_long   =    -10763.3128 Press    =      -621.6399 
---------------- Step     9300 ----- CPU =     45.0078 (sec) ----------------
TotEng   =     -2103.4927 KinEng   =       367.8379 Temp     =       286.3155 
PotEng   =     -2471.3306 E_bond   =         0.0000 E_angle  =         0.0000 
E_dihed  =         0.0000 E_impro  =         0.0000 E_vdwl   =       558.2722 
E_coul   =      7735.2179 E_long   =    -10764.8207 Press    =      1738.1223 
---------------- Step     9400 ----- CPU =     45.5074 (sec) ----------------
TotEng   =     -2106.7828 KinEng   =       365.7635 Temp     =       284.7009 
PotEng   =     -2472.5463 E_bond   =         0.0000 E_angle  =         0.0000 
E_dihed  =         0.0000 E_impro  =         0.0000 E_vdwl   =       511.9458 
E_coul   =      7781.0362 E_long   =    -10765.5283 Press    =      -256.3202 
SHAKE stats (type/ave/delta) on step 9500
  1 1 1.11689e-06
  1 109.47 0.000102245
---------------- Step     9500 ----- CPU =     46.0176 (sec) ----------------
TotEng   =     -2102.5269 KinEng   =       358.1921 Temp     =       278.8075 
PotEng   =     -2460.7190 E_bond   =         0.0000 E_angle  =         0.0000 
E_dihed  =         0.0000 E_impro  =         0.0000 E_vdwl   =       470.2612 
E_coul   =      7833.4983 E_long   =    -10764.4785 Press    =     -1203.3888 
---------------- Step     9600 ----- CPU =     46.5268 (sec) ----------------
TotEng   =     -2081.5360 KinEng   =       387.4295 Temp     =       301.5651 
PotEng   =     -2468.9654 E_bond   =         0.0000 E_angle  =         0.0000 
E_dihed  =         0.0000 E_impro  =         0.0000 E_vdwl   =       535.8322 
E_coul   =      7758.1364 E_long   =    -10762.9340 Press    =      1117.7695 
---------------- Step     9700 ----- CPU =     47.0265 (sec) ----------------
TotEng   =     -2076.5167 KinEng   =       375.3718 Temp     =       292.1797 
PotEng   =     -2451.8885 E_bond   =         0.0000 E_angle  =         0.0000 
E_dihed  =         0.0000 E_impro  =         0.0000 E_vdwl   =       536.9547 
E_coul   =      7774.8169 E_long   =    -10763.6601 Press    =      1261.6108 
---------------- Step     9800 ----- CPU =     47.5275 (sec) ----------------
TotEng   =     -2091.9534 KinEng   =       380.8544 Temp     =       296.4473 
PotEng   =     -2472.8078 E_bond   =         0.0000 E_angle  =         0.0000 
E_dihed  =         0.0000 E_impro  =         0.0000 E_vdwl   =       521.1770 
E_coul   =      7770.1509 E_long   =    -10764.1357 Press    =       331.5844 
---------------- Step     9900 ----- CPU =     48.0377 (sec) ----------------
TotEng   =     -2117.5958 KinEng   =       368.9464 Temp     =       287.1784 
PotEng   =     -2486.5422 E_bond   =         0.0000 E_angle  =         0.0000 
E_dihed  =         0.0000 E_impro  =         0.0000 E_vdwl   =       494.1511 
E_coul   =      7783.6093 E_long   =    -10764.3026 Press    =      -704.2801 
SHAKE stats (type/ave/delta) on step 10000
  1 1 1.07347e-06
  1 109.47 9.03347e-05
---------------- Step    10000 ----- CPU =     48.5429 (sec) ----------------
TotEng   =     -2121.1155 KinEng   =       379.9180 Temp     =       295.7184 
PotEng   =     -2501.0336 E_bond   =         0.0000 E_angle  =         0.0000 
E_dihed  =         0.0000 E_impro  =         0.0000 E_vdwl   =       505.5800 
E_coul   =      7757.2130 E_long   =    -10763.8266 Press    =      -650.2255 
Loop time of 48.543 on 1 procs for 10000 steps with 648 atoms

Pair  time (%) = 40.4042 (83.2338)
Bond  time (%) = 0.00375247 (0.0077302)
Kspce time (%) = 5.21764 (10.7485)
Neigh time (%) = 1.52628 (3.14419)
Comm  time (%) = 0.470872 (0.970011)
Outpt time (%) = 0.0216181 (0.044534)
Other time (%) = 0.898637 (1.85122)

FFT time (% of Kspce) = 1.22282 (23.4362)
FFT Gflps 3d (1d only) = 0.522403 0.590529

Nlocal:    648 ave 648 max 648 min
Histogram: 1 0 0 0 0 0 0 0 0 0
Nghost:    6970 ave 6970 max 6970 min
Histogram: 1 0 0 0 0 0 0 0 0 0
Neighs:    229678 ave 229678 max 229678 min
Histogram: 1 0 0 0 0 0 0 0 0 0

Total # of neighbors = 229678
Ave neighs/atom = 354.441
Ave special neighs/atom = 2
Neighbor list builds = 178
Dangerous builds = 0
unfix           4
undump          1

print                          .
.
print ================================================
================================================
print "NPT dynamics with an isotropic pressure of 1atm."
NPT dynamics with an isotropic pressure of 1atm.
print ================================================
================================================
print                       .
.

timestep        2.0
fix             2 all npt temp 300.0 300.0 100.0 iso 1.0 1.0 2000.0
thermo          100
thermo_style    multi
dump            1 all custom 5000 ${sname}.npt.lammps id type xu yu zu vx vy vz
dump            1 all custom 5000 watbox.spc.npt.lammps id type xu yu zu vx vy vz
run             100000 # run for 15 ns
PPPM initialization ...
  G vector (1/distance) = 0.246947
  grid = 8 8 8
  stencil order = 5
  estimated absolute RMS force accuracy = 0.0750083
  estimated relative force accuracy = 0.000225885
  using double precision FFTs
  3d grid and FFT values/proc = 2197 512
SHAKE stats (type/ave/delta) on step 10000
  1 1 1.07347e-06
  1 109.47 9.03347e-05
Memory usage per processor = 6.27345 Mbytes
---------------- Step    10000 ----- CPU =      0.0000 (sec) ----------------
TotEng   =     -2121.1155 KinEng   =       379.9180 Temp     =       295.7184 
PotEng   =     -2501.0336 E_bond   =         0.0000 E_angle  =         0.0000 
E_dihed  =         0.0000 E_impro  =         0.0000 E_vdwl   =       505.5800 
E_coul   =      7757.2130 E_long   =    -10763.8266 Press    =      -671.8704 
Volume   =      6617.5119 
---------------- Step    10100 ----- CPU =      0.5507 (sec) ----------------
TotEng   =     -2068.7424 KinEng   =       389.6818 Temp     =       303.3183 
PotEng   =     -2458.4242 E_bond   =         0.0000 E_angle  =         0.0000 
E_dihed  =         0.0000 E_impro  =         0.0000 E_vdwl   =       486.7210 
E_coul   =      7819.5072 E_long   =    -10764.6525 Press    =      -347.2411 
Volume   =      6603.8457 
---------------- Step    10200 ----- CPU =      1.1130 (sec) ----------------
TotEng   =     -2062.0155 KinEng   =       365.6714 Temp     =       284.6292 
PotEng   =     -2427.6869 E_bond   =         0.0000 E_angle  =         0.0000 
E_dihed  =         0.0000 E_impro  =         0.0000 E_vdwl   =       527.8367 
E_coul   =      7806.9429 E_long   =    -10762.4665 Press    =      1250.9500 
Volume   =      6587.3619 
---------------- Step    10300 ----- CPU =      1.6775 (sec) ----------------
TotEng   =     -2022.2265 KinEng   =       390.4569 Temp     =       303.9216 
PotEng   =     -2412.6834 E_bond   =         0.0000 E_angle  =         0.0000 
E_dihed  =         0.0000 E_impro  =         0.0000 E_vdwl   =       485.2500 
E_coul   =      7865.3342 E_long   =    -10763.2675 Press    =        74.2430 
Volume   =      6602.9249 
---------------- Step    10400 ----- CPU =      2.2414 (sec) ----------------
TotEng   =     -1976.6082 KinEng   =       389.5115 Temp     =       303.1857 
PotEng   =     -2366.1197 E_bond   =         0.0000 E_angle  =         0.0000 
E_dihed  =         0.0000 E_impro  =         0.0000 E_vdwl   =       470.8347 
E_coul   =      7926.9171 E_long   =    -10763.8715 Press    =       303.4786 
Volume   =      6626.9635 
SHAKE stats (type/ave/delta) on step 10500
  1 1.00001 1.44952e-05
  1 109.47 0.00120414
---------------- Step    10500 ----- CPU =      2.8059 (sec) ----------------
TotEng   =     -1998.0228 KinEng   =       363.3146 Temp     =       282.7947 
PotEng   =     -2361.3374 E_bond   =         0.0000 E_angle  =         0.0000 
E_dihed  =         0.0000 E_impro  =         0.0000 E_vdwl   =       457.7231 
E_coul   =      7944.3799 E_long   =    -10763.4404 Press    =      -390.0764 
Volume   =      6648.5916 
---------------- Step    10600 ----- CPU =      3.3797 (sec) ----------------
TotEng   =     -2029.6993 KinEng   =       374.1540 Temp     =       291.2318 
PotEng   =     -2403.8533 E_bond   =         0.0000 E_angle  =         0.0000 
E_dihed  =         0.0000 E_impro  =         0.0000 E_vdwl   =       449.5870 
E_coul   =      7910.7113 E_long   =    -10764.1516 Press    =      -919.2276 
Volume   =      6655.0309 
---------------- Step    10700 ----- CPU =      3.9473 (sec) ----------------
TotEng   =     -2031.3765 KinEng   =       388.6669 Temp     =       302.5283 
PotEng   =     -2420.0434 E_bond   =         0.0000 E_angle  =         0.0000 
E_dihed  =         0.0000 E_impro  =         0.0000 E_vdwl   =       517.6801 
E_coul   =      7826.6366 E_long   =    -10764.3601 Press    =      1027.9438 
Volume   =      6635.3140 
---------------- Step    10800 ----- CPU =      4.5183 (sec) ----------------
TotEng   =     -2052.9788 KinEng   =       382.4007 Temp     =       297.6508 
PotEng   =     -2435.3795 E_bond   =         0.0000 E_angle  =         0.0000 
E_dihed  =         0.0000 E_impro  =         0.0000 E_vdwl   =       454.6333 
E_coul   =      7871.3164 E_long   =    -10761.3292 Press    =     -1444.4658 
Volume   =      6619.3058 
---------------- Step    10900 ----- CPU =      5.0869 (sec) ----------------
TotEng   =     -2031.2011 KinEng   =       379.6785 Temp     =       295.5320 
PotEng   =     -2410.8796 E_bond   =         0.0000 E_angle  =         0.0000 
E_dihed  =         0.0000 E_impro  =         0.0000 E_vdwl   =       460.6631 
E_coul   =      7892.8893 E_long   =    -10764.4321 Press    =      -500.3299 
Volume   =      6551.1781 
SHAKE stats (type/ave/delta) on step 11000
  1 0.999962 4.74405e-06
  1 109.47 0.000563871
---------------- Step    11000 ----- CPU =      5.6620 (sec) ----------------
TotEng   =     -2005.0134 KinEng   =       398.5799 Temp     =       310.2443 
PotEng   =     -2403.5933 E_bond   =         0.0000 E_angle  =         0.0000 
E_dihed  =         0.0000 E_impro  =         0.0000 E_vdwl   =       486.4790 
E_coul   =      7874.6080 E_long   =    -10764.6803 Press    =       778.0619 
Volume   =      6460.9019 
---------------- Step    11100 ----- CPU =      6.2393 (sec) ----------------
TotEng   =     -2041.8495 KinEng   =       379.4354 Temp     =       295.3427 
PotEng   =     -2421.2849 E_bond   =         0.0000 E_angle  =         0.0000 
E_dihed  =         0.0000 E_impro  =         0.0000 E_vdwl   =       517.1124 
E_coul   =      7825.3478 E_long   =    -10763.7450 Press    =      1750.0222 
Volume   =      6400.0901 
---------------- Step    11200 ----- CPU =      6.8201 (sec) ----------------
TotEng   =     -2071.9284 KinEng   =       361.2029 Temp     =       281.1510 
PotEng   =     -2433.1313 E_bond   =         0.0000 E_angle  =         0.0000 
E_dihed  =         0.0000 E_impro  =         0.0000 E_vdwl   =       485.7699 
E_coul   =      7845.7955 E_long   =    -10764.6966 Press    =       366.1063 
Volume   =      6387.4554 
---------------- Step    11300 ----- CPU =      7.4021 (sec) ----------------
TotEng   =     -2016.6705 KinEng   =       386.2716 Temp     =       300.6639 
PotEng   =     -2402.9421 E_bond   =         0.0000 E_angle  =         0.0000 
E_dihed  =         0.0000 E_impro  =         0.0000 E_vdwl   =       515.7068 
E_coul   =      7845.4804 E_long   =    -10764.1292 Press    =      1768.8911 
Volume   =      6401.5204 
---------------- Step    11400 ----- CPU =      7.9815 (sec) ----------------
TotEng   =     -1990.1450 KinEng   =       384.3342 Temp     =       299.1559 
PotEng   =     -2374.4793 E_bond   =         0.0000 E_angle  =         0.0000 
E_dihed  =         0.0000 E_impro  =         0.0000 E_vdwl   =       469.9715 
E_coul   =      7920.4230 E_long   =    -10764.8737 Press    =       573.5282 
Volume   =      6447.9337 
SHAKE stats (type/ave/delta) on step 11500
  1 1.00004 3.69666e-06
  1 109.47 0.000426583
---------------- Step    11500 ----- CPU =      8.5617 (sec) ----------------
TotEng   =     -1942.4631 KinEng   =       392.4060 Temp     =       305.4387 
PotEng   =     -2334.8691 E_bond   =         0.0000 E_angle  =         0.0000 
E_dihed  =         0.0000 E_impro  =         0.0000 E_vdwl   =       452.1575 
E_coul   =      7976.4515 E_long   =    -10763.4781 Press    =       224.6409 
Volume   =      6511.3043 
---------------- Step    11600 ----- CPU =      9.1352 (sec) ----------------
TotEng   =     -1962.5808 KinEng   =       388.4188 Temp     =       302.3352 
PotEng   =     -2350.9996 E_bond   =         0.0000 E_angle  =         0.0000 
E_dihed  =         0.0000 E_impro  =         0.0000 E_vdwl   =       460.0462 
E_coul   =      7953.6392 E_long   =    -10764.6850 Press    =       483.7213 
Volume   =      6568.4611 
---------------- Step    11700 ----- CPU =      9.7162 (sec) ----------------
TotEng   =     -1991.7578 KinEng   =       374.2426 Temp     =       291.3008 
PotEng   =     -2366.0004 E_bond   =         0.0000 E_angle  =         0.0000 
E_dihed  =         0.0000 E_impro  =         0.0000 E_vdwl   =       419.6357 
E_coul   =      7977.4870 E_long   =    -10763.1232 Press    =     -1283.6027 
Volume   =      6611.2474 
---------------- Step    11800 ----- CPU =     10.2894 (sec) ----------------
TotEng   =     -1941.7165 KinEng   =       385.0030 Temp     =       299.6764 
PotEng   =     -2326.7195 E_bond   =         0.0000 E_angle  =         0.0000 
E_dihed  =         0.0000 E_impro  =         0.0000 E_vdwl   =       407.1149 
E_coul   =      8026.8635 E_long   =    -10760.6979 Press    =     -1190.7934 
Volume   =      6601.1041 
---------------- Step    11900 ----- CPU =     10.8804 (sec) ----------------
TotEng   =     -1966.4251 KinEng   =       408.7997 Temp     =       318.1991 
PotEng   =     -2375.2248 E_bond   =         0.0000 E_angle  =         0.0000 
E_dihed  =         0.0000 E_impro  =         0.0000 E_vdwl   =       426.1986 
E_coul   =      7962.6300 E_long   =    -10764.0533 Press    =      -905.5964 
Volume   =      6516.1358 
SHAKE stats (type/ave/delta) on step 12000
  1 0.999939 5.92909e-06
  1 109.47 0.000482019
---------------- Step    12000 ----- CPU =     11.4653 (sec) ----------------
TotEng   =     -2003.7333 KinEng   =       379.0744 Temp     =       295.0617 
PotEng   =     -2382.8077 E_bond   =         0.0000 E_angle  =         0.0000 
E_dihed  =         0.0000 E_impro  =         0.0000 E_vdwl   =       450.1809 
E_coul   =      7932.3943 E_long   =    -10765.3829 Press    =       196.8394 
Volume   =      6398.1826 
---------------- Step    12100 ----- CPU =     12.0390 (sec) ----------------
TotEng   =     -2015.8270 KinEng   =       367.8158 Temp     =       286.2983 
PotEng   =     -2383.6428 E_bond   =         0.0000 E_angle  =         0.0000 
E_dihed  =         0.0000 E_impro  =         0.0000 E_vdwl   =       488.3576 
E_coul   =      7890.9135 E_long   =    -10762.9139 Press    =      1403.6818 
Volume   =      6304.9924 
---------------- Step    12200 ----- CPU =     12.6314 (sec) ----------------
TotEng   =     -1987.7407 KinEng   =       417.5388 Temp     =       325.0015 
PotEng   =     -2405.2795 E_bond   =         0.0000 E_angle  =         0.0000 
E_dihed  =         0.0000 E_impro  =         0.0000 E_vdwl   =       499.7017 
E_coul   =      7859.6307 E_long   =    -10764.6119 Press    =      1832.2713 
Volume   =      6261.4237 
---------------- Step    12300 ----- CPU =     13.2156 (sec) ----------------
TotEng   =     -2031.2634 KinEng   =       384.4136 Temp     =       299.2176 
PotEng   =     -2415.6769 E_bond   =         0.0000 E_angle  =         0.0000 
E_dihed  =         0.0000 E_impro  =         0.0000 E_vdwl   =       475.2964 
E_coul   =      7871.9444 E_long   =    -10762.9178 Press    =       772.3865 
Volume   =      6285.4855 
---------------- Step    12400 ----- CPU =     13.8119 (sec) ----------------
TotEng   =     -2023.9516 KinEng   =       375.4952 Temp     =       292.2758 
PotEng   =     -2399.4468 E_bond   =         0.0000 E_angle  =         0.0000 
E_dihed  =         0.0000 E_impro  =         0.0000 E_vdwl   =       440.4210 
E_coul   =      7923.6914 E_long   =    -10763.5592 Press    =      -591.3957 
Volume   =      6365.8829 
SHAKE stats (type/ave/delta) on step 12500
  1 1.00004 5.92255e-06
  1 109.47 0.000471297
---------------- Step    12500 ----- CPU =     14.3913 (sec) ----------------
TotEng   =     -1992.8876 KinEng   =       390.7646 Temp     =       304.1611 
PotEng   =     -2383.6522 E_bond   =         0.0000 E_angle  =         0.0000 
E_dihed  =         0.0000 E_impro  =         0.0000 E_vdwl   =       427.1066 
E_coul   =      7953.2970 E_long   =    -10764.0557 Press    =     -1108.3977 
Volume   =      6452.5873 
---------------- Step    12600 ----- CPU =     14.9756 (sec) ----------------
TotEng   =     -2018.6625 KinEng   =       352.8319 Temp     =       274.6353 
PotEng   =     -2371.4944 E_bond   =         0.0000 E_angle  =         0.0000 
E_dihed  =         0.0000 E_impro  =         0.0000 E_vdwl   =       426.4971 
E_coul   =      7966.2231 E_long   =    -10764.2146 Press    =     -1246.6299 
Volume   =      6496.9543 
---------------- Step    12700 ----- CPU =     15.5518 (sec) ----------------
TotEng   =     -1970.2671 KinEng   =       408.7769 Temp     =       318.1814 
PotEng   =     -2379.0440 E_bond   =         0.0000 E_angle  =         0.0000 
E_dihed  =         0.0000 E_impro  =         0.0000 E_vdwl   =       444.0688 
E_coul   =      7939.1076 E_long   =    -10762.2204 Press    =      -617.0534 
Volume   =      6476.0094 
---------------- Step    12800 ----- CPU =     16.1387 (sec) ----------------
TotEng   =     -1985.7711 KinEng   =       374.9433 Temp     =       291.8462 
PotEng   =     -2360.7144 E_bond   =         0.0000 E_angle  =         0.0000 
E_dihed  =         0.0000 E_impro  =         0.0000 E_vdwl   =       485.2217 
E_coul   =      7917.5528 E_long   =    -10763.4888 Press    =      1308.1708 
Volume   =      6414.0338 
---------------- Step    12900 ----- CPU =     16.7336 (sec) ----------------
TotEng   =     -2025.9273 KinEng   =       358.5818 Temp     =       279.1108 
PotEng   =     -2384.5091 E_bond   =         0.0000 E_angle  =         0.0000 
E_dihed  =         0.0000 E_impro  =         0.0000 E_vdwl   =       476.3417 
E_coul   =      7902.5257 E_long   =    -10763.3765 Press    =       838.0156 
Volume   =      6345.5825 
SHAKE stats (type/ave/delta) on step 13000
  1 1 3.19251e-06
  1 109.47 0.000356381
---------------- Step    13000 ----- CPU =     17.3234 (sec) ----------------
TotEng   =     -1962.1808 KinEng   =       390.2260 Temp     =       303.7419 
PotEng   =     -2352.4068 E_bond   =         0.0000 E_angle  =         0.0000 
E_dihed  =         0.0000 E_impro  =         0.0000 E_vdwl   =       460.8446 
E_coul   =      7950.2978 E_long   =    -10763.5492 Press    =      1111.7746 
Volume   =      6309.8770 
---------------- Step    13100 ----- CPU =     17.9116 (sec) ----------------
TotEng   =     -2005.4746 KinEng   =       373.9250 Temp     =       291.0536 
PotEng   =     -2379.3996 E_bond   =         0.0000 E_angle  =         0.0000 
E_dihed  =         0.0000 E_impro  =         0.0000 E_vdwl   =       438.8908 
E_coul   =      7944.2090 E_long   =    -10762.4994 Press    =      -368.8766 
Volume   =      6337.0584 
---------------- Step    13200 ----- CPU =     18.4887 (sec) ----------------
TotEng   =     -1982.4683 KinEng   =       378.5205 Temp     =       294.6306 
PotEng   =     -2360.9887 E_bond   =         0.0000 E_angle  =         0.0000 
E_dihed  =         0.0000 E_impro  =         0.0000 E_vdwl   =       480.9789 
E_coul   =      7922.8693 E_long   =    -10764.8369 Press    =      1380.5719 
Volume   =      6359.3038 
---------------- Step    13300 ----- CPU =     19.0669 (sec) ----------------
TotEng   =     -1958.4302 KinEng   =       400.4231 Temp     =       311.6790 
PotEng   =     -2358.8534 E_bond   =         0.0000 E_angle  =         0.0000 
E_dihed  =         0.0000 E_impro  =         0.0000 E_vdwl   =       434.4303 
E_coul   =      7970.8513 E_long   =    -10764.1350 Press    =      -572.2232 
Volume   =      6410.5296 
---------------- Step    13400 ----- CPU =     19.6563 (sec) ----------------
TotEng   =     -1980.5287 KinEng   =       378.4292 Temp     =       294.5595 
[...]
E_dihed  =         0.0000 E_impro  =         0.0000 E_vdwl   =       529.6797 
E_coul   =      7827.3482 E_long   =    -10766.1750 Press    =      2173.5272 
Volume   =      6467.3672 
---------------- Step   105800 ----- CPU =    552.8059 (sec) ----------------
TotEng   =     -2055.9882 KinEng   =       358.7164 Temp     =       279.2156 
PotEng   =     -2414.7046 E_bond   =         0.0000 E_angle  =         0.0000 
E_dihed  =         0.0000 E_impro  =         0.0000 E_vdwl   =       455.6450 
E_coul   =      7893.3400 E_long   =    -10763.6896 Press    =      -891.6290 
Volume   =      6527.9661 
---------------- Step   105900 ----- CPU =    553.3801 (sec) ----------------
TotEng   =     -2010.5782 KinEng   =       394.0325 Temp     =       306.7048 
PotEng   =     -2404.6108 E_bond   =         0.0000 E_angle  =         0.0000 
E_dihed  =         0.0000 E_impro  =         0.0000 E_vdwl   =       448.5206 
E_coul   =      7908.4616 E_long   =    -10761.5930 Press    =     -1053.0935 
Volume   =      6584.1924 
SHAKE stats (type/ave/delta) on step 106000
  1 1.00001 7.82809e-06
  1 109.47 0.00068231
---------------- Step   106000 ----- CPU =    553.9512 (sec) ----------------
TotEng   =     -1988.5174 KinEng   =       389.4076 Temp     =       303.1048 
PotEng   =     -2377.9250 E_bond   =         0.0000 E_angle  =         0.0000 
E_dihed  =         0.0000 E_impro  =         0.0000 E_vdwl   =       482.7846 
E_coul   =      7903.7350 E_long   =    -10764.4446 Press    =       412.3551 
Volume   =      6619.4760 
---------------- Step   106100 ----- CPU =    554.5153 (sec) ----------------
TotEng   =     -1967.2881 KinEng   =       411.1190 Temp     =       320.0044 
PotEng   =     -2378.4071 E_bond   =         0.0000 E_angle  =         0.0000 
E_dihed  =         0.0000 E_impro  =         0.0000 E_vdwl   =       448.3468 
E_coul   =      7935.4607 E_long   =    -10762.2146 Press    =      -611.0148 
Volume   =      6616.2241 
---------------- Step   106200 ----- CPU =    555.0790 (sec) ----------------
TotEng   =     -2026.6269 KinEng   =       362.7707 Temp     =       282.3713 
PotEng   =     -2389.3975 E_bond   =         0.0000 E_angle  =         0.0000 
E_dihed  =         0.0000 E_impro  =         0.0000 E_vdwl   =       468.2437 
E_coul   =      7906.7395 E_long   =    -10764.3808 Press    =       -44.1351 
Volume   =      6569.2941 
---------------- Step   106300 ----- CPU =    555.6457 (sec) ----------------
TotEng   =     -1984.4993 KinEng   =       376.0660 Temp     =       292.7201 
PotEng   =     -2360.5653 E_bond   =         0.0000 E_angle  =         0.0000 
E_dihed  =         0.0000 E_impro  =         0.0000 E_vdwl   =       452.6581 
E_coul   =      7950.2093 E_long   =    -10763.4327 Press    =      -137.3164 
Volume   =      6505.4358 
---------------- Step   106400 ----- CPU =    556.2386 (sec) ----------------
TotEng   =     -1990.9441 KinEng   =       385.8477 Temp     =       300.3339 
PotEng   =     -2376.7918 E_bond   =         0.0000 E_angle  =         0.0000 
E_dihed  =         0.0000 E_impro  =         0.0000 E_vdwl   =       446.3228 
E_coul   =      7941.2156 E_long   =    -10764.3302 Press    =      -196.3211 
Volume   =      6453.8927 
SHAKE stats (type/ave/delta) on step 106500
  1 0.999989 5.19554e-06
  1 109.47 0.00054031
---------------- Step   106500 ----- CPU =    556.8151 (sec) ----------------
TotEng   =     -2015.8366 KinEng   =       379.9254 Temp     =       295.7241 
PotEng   =     -2395.7620 E_bond   =         0.0000 E_angle  =         0.0000 
E_dihed  =         0.0000 E_impro  =         0.0000 E_vdwl   =       463.4511 
E_coul   =      7904.6790 E_long   =    -10763.8921 Press    =       116.5233 
Volume   =      6427.5265 
---------------- Step   106600 ----- CPU =    557.4069 (sec) ----------------
TotEng   =     -1986.2092 KinEng   =       425.4290 Temp     =       331.1430 
PotEng   =     -2411.6382 E_bond   =         0.0000 E_angle  =         0.0000 
E_dihed  =         0.0000 E_impro  =         0.0000 E_vdwl   =       455.9324 
E_coul   =      7898.0077 E_long   =    -10765.5783 Press    =        78.1192 
Volume   =      6409.7137 
---------------- Step   106700 ----- CPU =    557.9861 (sec) ----------------
TotEng   =     -2030.9493 KinEng   =       383.6756 Temp     =       298.6432 
PotEng   =     -2414.6249 E_bond   =         0.0000 E_angle  =         0.0000 
E_dihed  =         0.0000 E_impro  =         0.0000 E_vdwl   =       478.8249 
E_coul   =      7869.3849 E_long   =    -10762.8347 Press    =       270.7468 
Volume   =      6417.6853 
---------------- Step   106800 ----- CPU =    558.5727 (sec) ----------------
TotEng   =     -1984.4234 KinEng   =       403.0993 Temp     =       313.7621 
PotEng   =     -2387.5227 E_bond   =         0.0000 E_angle  =         0.0000 
E_dihed  =         0.0000 E_impro  =         0.0000 E_vdwl   =       491.4907 
E_coul   =      7883.7658 E_long   =    -10762.7791 Press    =      1035.9119 
Volume   =      6432.9227 
---------------- Step   106900 ----- CPU =    559.1525 (sec) ----------------
TotEng   =     -1994.3255 KinEng   =       392.3097 Temp     =       305.3637 
PotEng   =     -2386.6352 E_bond   =         0.0000 E_angle  =         0.0000 
E_dihed  =         0.0000 E_impro  =         0.0000 E_vdwl   =       489.8251 
E_coul   =      7885.2935 E_long   =    -10761.7537 Press    =      1088.3864 
Volume   =      6466.1010 
SHAKE stats (type/ave/delta) on step 107000
  1 1.00002 3.87943e-06
  1 109.47 0.000503843
---------------- Step   107000 ----- CPU =    559.7280 (sec) ----------------
TotEng   =     -2009.6031 KinEng   =       368.5142 Temp     =       286.8419 
PotEng   =     -2378.1173 E_bond   =         0.0000 E_angle  =         0.0000 
E_dihed  =         0.0000 E_impro  =         0.0000 E_vdwl   =       436.5852 
E_coul   =      7947.2693 E_long   =    -10761.9717 Press    =      -857.4414 
Volume   =      6508.8731 
---------------- Step   107100 ----- CPU =    560.2982 (sec) ----------------
TotEng   =     -1973.4995 KinEng   =       394.4424 Temp     =       307.0238 
PotEng   =     -2367.9419 E_bond   =         0.0000 E_angle  =         0.0000 
E_dihed  =         0.0000 E_impro  =         0.0000 E_vdwl   =       492.1042 
E_coul   =      7903.5523 E_long   =    -10763.5984 Press    =       985.2846 
Volume   =      6546.9971 
---------------- Step   107200 ----- CPU =    560.8628 (sec) ----------------
TotEng   =     -1999.9981 KinEng   =       376.3396 Temp     =       292.9330 
PotEng   =     -2376.3377 E_bond   =         0.0000 E_angle  =         0.0000 
E_dihed  =         0.0000 E_impro  =         0.0000 E_vdwl   =       399.6931 
E_coul   =      7986.6268 E_long   =    -10762.6577 Press    =     -2255.0269 
Volume   =      6590.9372 
---------------- Step   107300 ----- CPU =    561.4358 (sec) ----------------
TotEng   =     -1957.0232 KinEng   =       413.5487 Temp     =       321.8956 
PotEng   =     -2370.5720 E_bond   =         0.0000 E_angle  =         0.0000 
E_dihed  =         0.0000 E_impro  =         0.0000 E_vdwl   =       431.7397 
E_coul   =      7960.5913 E_long   =    -10762.9030 Press    =      -779.5392 
Volume   =      6560.2730 
---------------- Step   107400 ----- CPU =    562.0027 (sec) ----------------
TotEng   =     -1923.1104 KinEng   =       411.0537 Temp     =       319.9536 
PotEng   =     -2334.1641 E_bond   =         0.0000 E_angle  =         0.0000 
E_dihed  =         0.0000 E_impro  =         0.0000 E_vdwl   =       429.5985 
E_coul   =      8000.9802 E_long   =    -10764.7428 Press    =      -239.9778 
Volume   =      6503.6462 
SHAKE stats (type/ave/delta) on step 107500
  1 0.999993 8.202e-06
  1 109.47 0.000930596
---------------- Step   107500 ----- CPU =    562.5839 (sec) ----------------
TotEng   =     -1985.2478 KinEng   =       391.6564 Temp     =       304.8552 
PotEng   =     -2376.9041 E_bond   =         0.0000 E_angle  =         0.0000 
E_dihed  =         0.0000 E_impro  =         0.0000 E_vdwl   =       456.0342 
E_coul   =      7932.0717 E_long   =    -10765.0101 Press    =        48.8918 
Volume   =      6463.5669 
---------------- Step   107600 ----- CPU =    563.1613 (sec) ----------------
TotEng   =     -2008.6853 KinEng   =       365.5560 Temp     =       284.5393 
PotEng   =     -2374.2413 E_bond   =         0.0000 E_angle  =         0.0000 
E_dihed  =         0.0000 E_impro  =         0.0000 E_vdwl   =       472.9033 
E_coul   =      7916.8799 E_long   =    -10764.0246 Press    =       766.4911 
Volume   =      6450.3205 
---------------- Step   107700 ----- CPU =    563.7482 (sec) ----------------
TotEng   =     -1967.7771 KinEng   =       396.5590 Temp     =       308.6713 
PotEng   =     -2364.3361 E_bond   =         0.0000 E_angle  =         0.0000 
E_dihed  =         0.0000 E_impro  =         0.0000 E_vdwl   =       427.3954 
E_coul   =      7971.8263 E_long   =    -10763.5577 Press    =      -624.1831 
Volume   =      6453.7919 
---------------- Step   107800 ----- CPU =    564.3367 (sec) ----------------
TotEng   =     -1981.7343 KinEng   =       377.6024 Temp     =       293.9160 
PotEng   =     -2359.3368 E_bond   =         0.0000 E_angle  =         0.0000 
E_dihed  =         0.0000 E_impro  =         0.0000 E_vdwl   =       479.1515 
E_coul   =      7924.5783 E_long   =    -10763.0666 Press    =      1130.6902 
Volume   =      6445.8994 
---------------- Step   107900 ----- CPU =    564.9150 (sec) ----------------
TotEng   =     -2037.9266 KinEng   =       363.1232 Temp     =       282.6458 
PotEng   =     -2401.0499 E_bond   =         0.0000 E_angle  =         0.0000 
E_dihed  =         0.0000 E_impro  =         0.0000 E_vdwl   =       461.2139 
E_coul   =      7901.9773 E_long   =    -10764.2410 Press    =       111.4967 
Volume   =      6443.2879 
SHAKE stats (type/ave/delta) on step 108000
  1 1.00001 1.2467e-05
  1 109.47 0.000888324
---------------- Step   108000 ----- CPU =    565.4861 (sec) ----------------
TotEng   =     -2000.1615 KinEng   =       396.6532 Temp     =       308.7446 
PotEng   =     -2396.8147 E_bond   =         0.0000 E_angle  =         0.0000 
E_dihed  =         0.0000 E_impro  =         0.0000 E_vdwl   =       430.0756 
E_coul   =      7936.8436 E_long   =    -10763.7339 Press    =      -806.8375 
Volume   =      6448.5767 
---------------- Step   108100 ----- CPU =    566.0612 (sec) ----------------
TotEng   =     -1982.5284 KinEng   =       414.4336 Temp     =       322.5844 
PotEng   =     -2396.9620 E_bond   =         0.0000 E_angle  =         0.0000 
E_dihed  =         0.0000 E_impro  =         0.0000 E_vdwl   =       497.2281 
E_coul   =      7868.7018 E_long   =    -10762.8919 Press    =      1341.3276 
Volume   =      6450.2376 
---------------- Step   108200 ----- CPU =    566.6326 (sec) ----------------
TotEng   =     -2008.1385 KinEng   =       396.9688 Temp     =       308.9903 
PotEng   =     -2405.1073 E_bond   =         0.0000 E_angle  =         0.0000 
E_dihed  =         0.0000 E_impro  =         0.0000 E_vdwl   =       451.9631 
E_coul   =      7905.0330 E_long   =    -10762.1033 Press    =      -493.2794 
Volume   =      6458.9275 
---------------- Step   108300 ----- CPU =    567.2040 (sec) ----------------
TotEng   =     -1992.6817 KinEng   =       386.8391 Temp     =       301.1055 
PotEng   =     -2379.5207 E_bond   =         0.0000 E_angle  =         0.0000 
E_dihed  =         0.0000 E_impro  =         0.0000 E_vdwl   =       452.9293 
E_coul   =      7927.1879 E_long   =    -10759.6380 Press    =        32.9108 
Volume   =      6448.7111 
---------------- Step   108400 ----- CPU =    567.7787 (sec) ----------------
TotEng   =     -1981.3912 KinEng   =       367.7539 Temp     =       286.2501 
PotEng   =     -2349.1451 E_bond   =         0.0000 E_angle  =         0.0000 
E_dihed  =         0.0000 E_impro  =         0.0000 E_vdwl   =       460.7963 
E_coul   =      7954.0681 E_long   =    -10764.0095 Press    =       855.8267 
Volume   =      6434.2907 
SHAKE stats (type/ave/delta) on step 108500
  1 1.00002 9.34119e-06
  1 109.47 0.000847522
---------------- Step   108500 ----- CPU =    568.3549 (sec) ----------------
TotEng   =     -1967.2411 KinEng   =       376.6307 Temp     =       293.1596 
PotEng   =     -2343.8718 E_bond   =         0.0000 E_angle  =         0.0000 
E_dihed  =         0.0000 E_impro  =         0.0000 E_vdwl   =       441.3523 
E_coul   =      7977.0906 E_long   =    -10762.3148 Press    =       247.1584 
Volume   =      6455.4088 
---------------- Step   108600 ----- CPU =    568.9379 (sec) ----------------
TotEng   =     -2000.6053 KinEng   =       398.1848 Temp     =       309.9368 
PotEng   =     -2398.7901 E_bond   =         0.0000 E_angle  =         0.0000 
E_dihed  =         0.0000 E_impro  =         0.0000 E_vdwl   =       463.7062 
E_coul   =      7901.4449 E_long   =    -10763.9412 Press    =       -31.2455 
Volume   =      6497.9933 
---------------- Step   108700 ----- CPU =    569.5098 (sec) ----------------
TotEng   =     -1994.9993 KinEng   =       392.8614 Temp     =       305.7932 
PotEng   =     -2387.8607 E_bond   =         0.0000 E_angle  =         0.0000 
E_dihed  =         0.0000 E_impro  =         0.0000 E_vdwl   =       456.3441 
E_coul   =      7917.7688 E_long   =    -10761.9737 Press    =      -220.8523 
Volume   =      6524.9618 
---------------- Step   108800 ----- CPU =    570.0906 (sec) ----------------
TotEng   =     -1986.1378 KinEng   =       379.7098 Temp     =       295.5563 
PotEng   =     -2365.8476 E_bond   =         0.0000 E_angle  =         0.0000 
E_dihed  =         0.0000 E_impro  =         0.0000 E_vdwl   =       445.2016 
E_coul   =      7951.4966 E_long   =    -10762.5458 Press    =      -422.5191 
Volume   =      6516.5131 
---------------- Step   108900 ----- CPU =    570.6652 (sec) ----------------
TotEng   =     -1965.5280 KinEng   =       414.6451 Temp     =       322.7491 
PotEng   =     -2380.1731 E_bond   =         0.0000 E_angle  =         0.0000 
E_dihed  =         0.0000 E_impro  =         0.0000 E_vdwl   =       423.9560 
E_coul   =      7958.1239 E_long   =    -10762.2530 Press    =     -1016.0396 
Volume   =      6480.8400 
SHAKE stats (type/ave/delta) on step 109000
  1 0.999945 1.02347e-05
  1 109.47 0.00117684
---------------- Step   109000 ----- CPU =    571.2462 (sec) ----------------
TotEng   =     -2017.2630 KinEng   =       389.2359 Temp     =       302.9712 
PotEng   =     -2406.4989 E_bond   =         0.0000 E_angle  =         0.0000 
E_dihed  =         0.0000 E_impro  =         0.0000 E_vdwl   =       424.5252 
E_coul   =      7931.4555 E_long   =    -10762.4796 Press    =     -1254.9055 
Volume   =      6405.8666 
---------------- Step   109100 ----- CPU =    571.8239 (sec) ----------------
TotEng   =     -2004.3853 KinEng   =       385.4122 Temp     =       299.9949 
PotEng   =     -2389.7974 E_bond   =         0.0000 E_angle  =         0.0000 
E_dihed  =         0.0000 E_impro  =         0.0000 E_vdwl   =       521.0657 
E_coul   =      7853.6474 E_long   =    -10764.5106 Press    =      2672.5469 
Volume   =      6291.7823 
---------------- Step   109200 ----- CPU =    572.4152 (sec) ----------------
TotEng   =     -1960.0977 KinEng   =       409.8639 Temp     =       319.0275 
PotEng   =     -2369.9616 E_bond   =         0.0000 E_angle  =         0.0000 
E_dihed  =         0.0000 E_impro  =         0.0000 E_vdwl   =       474.1990 
E_coul   =      7919.6911 E_long   =    -10763.8518 Press    =      1884.9098 
Volume   =      6221.0816 
---------------- Step   109300 ----- CPU =    573.0015 (sec) ----------------
TotEng   =     -1991.4933 KinEng   =       387.9215 Temp     =       301.9481 
PotEng   =     -2379.4148 E_bond   =         0.0000 E_angle  =         0.0000 
E_dihed  =         0.0000 E_impro  =         0.0000 E_vdwl   =       449.7161 
E_coul   =      7934.1223 E_long   =    -10763.2532 Press    =       388.6788 
Volume   =      6219.3982 
---------------- Step   109400 ----- CPU =    573.5963 (sec) ----------------
TotEng   =     -2030.8732 KinEng   =       388.1044 Temp     =       302.0904 
PotEng   =     -2418.9776 E_bond   =         0.0000 E_angle  =         0.0000 
E_dihed  =         0.0000 E_impro  =         0.0000 E_vdwl   =       480.9369 
E_coul   =      7863.1519 E_long   =    -10763.0664 Press    =       855.6075 
Volume   =      6250.9940 
SHAKE stats (type/ave/delta) on step 109500
  1 1.00003 1.30522e-05
  1 109.47 0.00123658
---------------- Step   109500 ----- CPU =    574.1896 (sec) ----------------
TotEng   =     -2017.0567 KinEng   =       388.8367 Temp     =       302.6605 
PotEng   =     -2405.8934 E_bond   =         0.0000 E_angle  =         0.0000 
E_dihed  =         0.0000 E_impro  =         0.0000 E_vdwl   =       433.5177 
E_coul   =      7923.4851 E_long   =    -10762.8962 Press    =      -763.3262 
Volume   =      6305.1043 
---------------- Step   109600 ----- CPU =    574.7739 (sec) ----------------
TotEng   =     -1988.7935 KinEng   =       384.7820 Temp     =       299.5044 
PotEng   =     -2373.5755 E_bond   =         0.0000 E_angle  =         0.0000 
E_dihed  =         0.0000 E_impro  =         0.0000 E_vdwl   =       478.0106 
E_coul   =      7913.4258 E_long   =    -10765.0120 Press    =      1015.5088 
Volume   =      6357.3457 
---------------- Step   109700 ----- CPU =    575.3615 (sec) ----------------
TotEng   =     -1954.5963 KinEng   =       371.1403 Temp     =       288.8861 
PotEng   =     -2325.7367 E_bond   =         0.0000 E_angle  =         0.0000 
E_dihed  =         0.0000 E_impro  =         0.0000 E_vdwl   =       418.7430 
E_coul   =      8019.5905 E_long   =    -10764.0702 Press    =      -326.1581 
Volume   =      6411.2477 
---------------- Step   109800 ----- CPU =    575.9410 (sec) ----------------
TotEng   =     -1949.8663 KinEng   =       400.2209 Temp     =       311.5216 
PotEng   =     -2350.0872 E_bond   =         0.0000 E_angle  =         0.0000 
E_dihed  =         0.0000 E_impro  =         0.0000 E_vdwl   =       433.4612 
E_coul   =      7981.4677 E_long   =    -10765.0161 Press    =       -72.3314 
Volume   =      6455.4934 
---------------- Step   109900 ----- CPU =    576.5241 (sec) ----------------
TotEng   =     -1995.2614 KinEng   =       363.7883 Temp     =       283.1634 
PotEng   =     -2359.0497 E_bond   =         0.0000 E_angle  =         0.0000 
E_dihed  =         0.0000 E_impro  =         0.0000 E_vdwl   =       431.8727 
E_coul   =      7973.5533 E_long   =    -10764.4756 Press    =      -424.3784 
Volume   =      6497.4552 
SHAKE stats (type/ave/delta) on step 110000
  1 0.999999 9.58869e-06
  1 109.47 0.00062775
---------------- Step   110000 ----- CPU =    577.1128 (sec) ----------------
TotEng   =     -1958.4702 KinEng   =       402.8560 Temp     =       313.5727 
PotEng   =     -2361.3263 E_bond   =         0.0000 E_angle  =         0.0000 
E_dihed  =         0.0000 E_impro  =         0.0000 E_vdwl   =       421.3096 
E_coul   =      7980.6648 E_long   =    -10763.3007 Press    =      -796.1501 
Volume   =      6505.9116 
Loop time of 577.113 on 1 procs for 100000 steps with 648 atoms

Pair  time (%) = 425.042 (73.6498)
Bond  time (%) = 0.0654557 (0.0113419)
Kspce time (%) = 52.725 (9.136)
Neigh time (%) = 65.2134 (11.2999)
Comm  time (%) = 5.73027 (0.99292)
Outpt time (%) = 0.0980067 (0.0169822)
Other time (%) = 28.2385 (4.89307)

FFT time (% of Kspce) = 12.2014 (23.1416)
FFT Gflps 3d (1d only) = 0.523549 0.589513

Nlocal:    648 ave 648 max 648 min
Histogram: 1 0 0 0 0 0 0 0 0 0
Nghost:    7202 ave 7202 max 7202 min
Histogram: 1 0 0 0 0 0 0 0 0 0
Neighs:    233093 ave 233093 max 233093 min
Histogram: 1 0 0 0 0 0 0 0 0 0

Total # of neighbors = 233093
Ave neighs/atom = 359.711
Ave special neighs/atom = 2
Neighbor list builds = 7408
Dangerous builds = 0
unfix           2
undump          1

log             ${sname}.2pt.eng
log             watbox.spc.2pt.eng
